42
 energy: -62.486133505805 gnorm: 0.000481437960 xtb: 6.7.1 (edcfbbe)
N           -1.56168958642373       -0.49428307570683       -2.08269937405815
H           -0.83153625467245       -1.09252438977422       -2.44911978148111
H           -1.12793282192152        0.37781080773008       -1.79320711322955
H           -3.30710664138765        0.13971291717417       -2.55082787814695
C           -2.23310827871046       -1.11695446322973       -0.94409574490516
H           -2.45117952148291       -2.15619946853386       -1.22305282745072
C           -1.42894572213990       -1.10051242801138        0.35422176744969
C           -3.58018372634091       -0.41901456338385       -0.78132049671373
H           -1.18030301849310       -0.07661670917789        0.62487052986469
H           -2.02000705363199       -1.53014830944204        1.15513854016427
H           -0.50870771293331       -1.66960770715426        0.23852229109255
O           -4.01341834332556        0.21575956871054       -1.87570665153311
N           -4.18063604860718       -0.51559514552090        0.32120833357379
H           -5.44800613479316       -2.27909030442586        0.90143563486234
C           -5.49559953517190        0.05777745467595        0.57016548857834
H           -5.58769590285358        0.06367376798962        1.66666958914224
C           -5.72371576282043        1.47362381205218        0.03626953925991
C           -6.49832073045617       -0.94492103101091        0.04221424412008
H           -4.82272004937204        2.05975307070289        0.23209084571485
H           -5.86197285797630        1.41766773645531       -1.04261406841688
C           -6.93130208068421        2.16960185092631        0.67574188193716
O           -6.28989514584179       -2.22274410001001        0.42642226799481
H           -7.75406178852324        1.45076911966522        0.73184763038936
C           -6.61076450220052        2.66337541414943        2.08541408681752
C           -7.37074023651157        3.34560390223390       -0.19488673798380
H           -5.80672774233245        3.39623661671807        2.05562325559414
H           -7.48507729680555        3.13446712689168        2.52868444463815
H           -6.30437051414912        1.84623649311051        2.73392168108889
H           -7.65966250974760        3.00891458806117       -1.18740760449274
H           -8.22120844757982        3.85372978543574        0.25363556832235
H           -6.55936602627621        4.06336251165763       -0.29745821177188
N           -7.42479650549306       -0.58872496422893       -0.72793023396347
H           -8.12966080052460        0.66416457122439       -1.80948503221230
C           -8.37856558264148       -1.52014734792793       -1.28196722959376
H           -7.89536309092148       -2.43655112634038       -1.64384334945886
C           -9.45663564091995       -1.89936311774196       -0.26080063671820
C           -9.05696074917053       -0.81152358186995       -2.46542899262576
H           -9.91694272766340       -1.00023754198923        0.14432883019118
H          -10.21871921645745       -2.49982085356432       -0.74942047443360
H           -9.01234955923299       -2.46839793353123        0.55206577626840
O           -8.77216475818791        0.48229344465424       -2.53748736780816
O           -9.78807063085675       -1.37358215963740       -3.23279732236150
