42
 energy: -62.486133510059 gnorm: 0.000480103222 xtb: 6.7.1 (edcfbbe)
N           -1.53557523618575       -1.28846555355224        1.14456306634902
H           -0.56239317020177       -1.53672133900210        1.01355537568605
H           -2.01183803449901       -2.10435834797324        1.52063891132886
H           -2.62977136226529        0.08837466357263        1.91301893536650
C           -2.15317878519185       -0.89357802308312       -0.12058093469781
H           -1.46695835774731       -0.19314323422777       -0.61466229532929
C           -2.45826780463498       -2.05306840119514       -1.06747036761095
C           -3.41217721536151       -0.10874947245361        0.22272858837929
H           -3.15167425407134       -2.74760224484772       -0.59708417894560
H           -2.91719396058651       -1.67230300332236       -1.97349974047905
H           -1.54338899837452       -2.58360725041938       -1.32437362251063
O           -3.43664191143951        0.40722029375637        1.46012407294104
N           -4.31557495082211        0.02665790684561       -0.64251767798579
H           -5.90990853799984       -0.30547406578875       -2.40940110985243
C           -5.52680571457133        0.76785571878093       -0.34184413969719
H           -5.59399493421528        1.02844647256436        0.71973268569255
C           -5.58457927980306        2.03676368698792       -1.20396020960374
C           -6.64813653084850       -0.18684111921412       -0.67485982938674
H           -4.82610079294171        2.72919075509267       -0.83313766923274
H           -5.31369138687908        1.78124468609606       -2.23277178943391
C           -6.95604878851080        2.72164152371113       -1.19595913873910
O           -6.69633913607658       -0.62404550252626       -1.94530854988805
H           -7.70263718777736        2.01835131431810       -1.58239792315436
C           -7.37194305575764        3.13705068058220        0.21280160927973
C           -6.91911006791074        3.94030097903510       -2.11680401365464
H           -6.60388841395465        3.75865390507699        0.66811976472221
H           -8.29714980662968        3.70724838438614        0.17571082285860
H           -7.53720416480427        2.26662882719585        0.84155942471109
H           -6.63708366258873        3.65561941601096       -3.12825088957775
H           -7.89603679442718        4.41564881383393       -2.15618168936036
H           -6.19830990506358        4.66854064489894       -1.75095907870889
N           -7.40790563921062       -0.59637586240773        0.24189480993987
H           -8.10209949317393       -0.40110670842849        1.90320300600555
C           -8.45968096376128       -1.55757798152868       -0.01094196957122
H           -9.01831147846705       -1.31984573275346       -0.92472811359603
C           -7.90866436072874       -2.98311766707720       -0.12580876370135
C           -9.42188322705657       -1.50308945588658        1.18504650411689
H           -7.30761420373298       -3.21886425371362        0.75031907459921
H           -8.73700661040269       -3.68312872995518       -0.18871842798636
H           -7.29027908301579       -3.07091075592907       -1.01545874333086
O           -8.96659209191808       -0.77399810112880        2.19677993347049
O          -10.47255190272534       -2.08149168274355        1.20681930873753
