42
 energy: -62.486133527780 gnorm: 0.000477911207 xtb: 6.7.1 (edcfbbe)
N           -1.28978488198441       -0.87276650631188       -1.12780166477018
H           -0.57897601744754       -1.58868266146749       -1.21697155458656
H           -0.84227971938387       -0.04494960566870       -0.74315487543628
H           -2.68537465926316       -0.12139319040044       -2.17018155021951
C           -2.36705076267886       -1.31027146161683       -0.23914798405072
H           -2.64190849307109       -2.33033593495029       -0.53802584509619
C           -2.01990456545136       -1.29661175415478        1.24620979194444
C           -3.57404187377027       -0.43190892754782       -0.53856662962621
H           -1.71453977022271       -0.29749568970792        1.55052675146420
H           -2.89639676807435       -1.57509404011271        1.82094826260651
H           -1.21156586810774       -1.99438121270026        1.45491181156984
O           -3.56283575947743        0.09707500323424       -1.79103185521439
N           -4.48451173725788       -0.31960261964761        0.31444390033937
H           -5.59533486337504       -0.18641560591374       -2.14269679504142
C           -5.67230553638095        0.49631710527289        0.16623504984421
H           -6.04598709342587        0.61607461618726        1.18859373358682
C           -5.47445997663291        1.88009549784626       -0.46735504016400
C           -6.69445511155081       -0.32968221974010       -0.58251776065719
H           -4.75238306362875        2.42757791696255        0.14332987835334
H           -5.04707201948402        1.78158817292104       -1.46716886235366
C           -6.77638615824809        2.68408660500816       -0.57127144972693
O           -6.44306339306744       -0.57835502425840       -1.88118134973628
H           -7.51528790393139        2.08523073217908       -1.11610559498248
C           -7.35219127840937        3.02637666841971        0.80024739113276
C           -6.51351916112641        3.96489224046687       -1.36274485902429
H           -6.61490179145100        3.55517124079918        1.40087921382462
H           -8.22418244962377        3.66613372576944        0.68765603661277
H           -7.66051951806585        2.13062073387714        1.33179368429189
H           -6.13332954513148        3.73736244505587       -2.35644129119882
H           -7.43010721633742        4.53905234641169       -1.47225526328630
H           -5.78116738419645        4.58351429395682       -0.84784258442544
N           -7.69132958186255       -0.78695097258092        0.03588729966867
H           -8.82329719693148       -0.72657791293257        1.45713456927610
C           -8.67943514937435       -1.61187924880766       -0.62387032643874
H           -8.92789174921439       -1.23350143089186       -1.62361878238666
C           -8.20606858220754       -3.06434521659391       -0.74908266138368
C           -9.94578202583778       -1.58805234321808        0.24384911224126
H           -7.90871318090710       -3.44239716263090        0.22694853940524
H           -9.01750256779237       -3.67356165575025       -1.13720534810341
H           -7.35591640064358       -3.11948574170778       -1.42435055435457
O           -9.75968184018317       -1.03285851014829        1.43547014641729
O          -10.99474864781818       -2.04563847261414       -0.11553956203369
