42
 energy: -62.486133503151 gnorm: 0.000480070944 xtb: 6.7.1 (edcfbbe)
N           -1.76589427998054       -2.06739895253307        0.21960164977194
H           -1.28085770250516       -1.63199092220810        0.99678339610846
H           -1.08857037966706       -2.60652655478015       -0.30714838066883
H           -3.58089667400489       -2.28162661307864        0.88420313991075
C           -2.39101202997230       -1.05430529420450       -0.63057360192616
H           -1.76628704457939       -0.16732543027254       -0.80134542575357
C           -2.76869422878878       -1.67123404213010       -1.97757248259440
C           -3.67775120013014       -0.61680104617973        0.04411594093060
H           -3.39398785537772       -2.54725432676649       -1.82253110963773
H           -3.32570300394778       -0.94590368963930       -2.56188452157950
H           -1.87620592477697       -1.96514311994201       -2.52624147274041
O           -4.21164097337950       -1.53246064402157        0.86990152529325
N           -4.12514321952158        0.53301517980835       -0.19403240794928
H           -7.41410772498881        0.78638942716072        1.63987213939563
C           -5.41803985543463        0.97148893707759        0.27159610199835
H           -5.33123883294765        1.26800232222598        1.32902831766772
C           -5.78666566524907        2.19425339051753       -0.59185869812354
C           -6.49075433379047       -0.08628747308729        0.15873520566962
H           -4.92317167986988        2.86077590204811       -0.57709077620136
H           -5.90415875752393        1.83042583531210       -1.61380417064579
C           -7.04089176937455        2.97028107821797       -0.17836517909808
O           -7.56080526861380        0.05629322531754        1.02607656190425
H           -7.89392457310779        2.28495251687085       -0.11968136311901
C           -6.86320298435330        3.67128127453166        1.16859059505659
C           -7.36146277484330        4.00837549925982       -1.25327630792339
H           -6.04131584833805        4.38173169245190        1.11274995497803
H           -7.76735584196572        4.21567525432723        1.43259018568589
H           -6.64643180348887        2.97229485816375        1.97445198690140
H           -7.54073982634564        3.52452624231067       -2.20995726548203
H           -8.25005406550556        4.57465013216846       -0.98412372303649
H           -6.53227887825750        4.70282046277296       -1.36862095666884
N           -6.38175185975496       -1.00160589697211       -0.68254821105084
H           -8.84027623949716       -0.42274756031800       -0.15833388348149
C           -7.28378919644021       -2.09921090198875       -0.90858826265343
H           -6.76315944552368       -2.76081290096346       -1.61122221591698
C           -7.63812935563972       -2.88963919143088        0.35853399000027
C           -8.58314166916332       -1.66345059984218       -1.60116105935654
H           -8.24258206285725       -2.29717896980152        1.04197918950357
H           -8.18935502848189       -3.78590202506489        0.08537162596007
H           -6.72049915317094       -3.17337889839387        0.86839397013743
O           -9.27939681873364       -0.71081488502333       -0.98122977430518
O           -8.96486541930156       -2.16025931910780       -2.62244895824531
