42
 energy: -62.486165461227 gnorm: 0.000470151085 xtb: 6.7.1 (edcfbbe)
N           -0.86415308596210       -0.36489119221293        0.52278703678484
H            0.08279319199101       -0.48483374783420        0.18482408868971
H           -1.00780899225307       -1.03155032995599        1.27630821894436
H           -2.06481537370613        1.04427884818725        1.06827807514787
C           -1.83754314239066       -0.60068902516202       -0.54208805678135
H           -1.49535870566889       -0.04298223650120       -1.42397107794213
C           -2.02573455567495       -2.06963946037654       -0.91765501223754
C           -3.14170710612430        0.04406802257853       -0.09594293641329
H           -2.42356690108599       -2.62636530148341       -0.07187779839705
H           -2.72218603721339       -2.15557592670170       -1.74486133086602
H           -1.07336859206576       -2.50635002524661       -1.21243235409724
O           -3.00934713028936        1.01939374410319        0.81244482541952
N           -4.23722858213509       -0.33738292296067       -0.58571950900744
H           -5.26384734695259       -1.52231797834230       -1.59006126813542
C           -5.48737966314731        0.28091247745364       -0.19272547806472
H           -5.51524236092521        0.48012557573267        0.88320937382936
C           -5.66340846159446        1.60841346988943       -0.95827714219003
C           -6.57864125474170       -0.70073550438395       -0.56429345828375
H           -4.82035649159557        2.24902403580674       -0.68984306922611
H           -5.59315249961126        1.39032099428933       -2.02755612879628
C           -6.97069695129248        2.35381166096531       -0.68049694073900
O           -6.22510993926421       -1.64347771456315       -1.44429301183576
H           -7.80827956688281        1.70004422549506       -0.93873418347352
C           -7.09587312628101        2.75322668347143        0.78712934675468
C           -7.03816597033148        3.59602255662464       -1.56802233322450
H           -6.25235535727921        3.37300105438765        1.08470726293437
H           -8.01096422108385        3.31884320649614        0.94300745116526
H           -7.12691199004526        1.87738373799124        1.42889180793353
H           -6.97947568763344        3.32469125115416       -2.61954442216182
H           -7.97351211415463        4.12488779153395       -1.40406713340741
H           -6.21682587883255        4.27262430135324       -1.34064923197413
N           -7.73099797634673       -0.57427981914682       -0.06663866316733
H           -8.97693931070554        0.45436461493363        0.77188924364270
C           -8.81164038912303       -1.46341856095789       -0.43495132383732
H           -8.82860392170660       -1.65947611170344       -1.51482027116344
C           -8.72385633727963       -2.80177902298369        0.30637139148495
C          -10.12475618649104       -0.77332674044654       -0.03867655381964
H           -8.65699443123013       -2.62826959933147        1.37861308478068
H           -9.61367973535575       -3.38792696549692        0.09468153934772
H           -7.84296276734194       -3.34827950747230       -0.02099222313973
O           -9.95067025853372        0.32177887701280        0.69134257223640
O          -11.20486605169380       -1.19569531256549       -0.34635940761643
