42
 energy: -62.486133508437 gnorm: 0.000480226100 xtb: 6.7.1 (edcfbbe)
N           -1.45720252775152       -0.51326961009088       -1.96418247490355
H           -0.84781842940603       -1.17339812894791       -2.43079758559979
H           -0.87198347673054        0.11881774630754       -1.42519626390435
H           -2.96135359104662        0.59088030786788       -2.38812323878950
C           -2.39574279820463       -1.19905222609366       -1.07815198763460
H           -2.82053834448634       -2.03980138689319       -1.64192921341226
C           -1.78176553641743       -1.72303259257892        0.21767664175857
C           -3.55336692265080       -0.23718238621448       -0.81561789568019
H           -1.34704311640649       -0.90256462721543        0.78511814134730
H           -2.55409465961065       -2.18626507892942        0.82162827566205
H           -1.00676965449705       -2.45548443314316        0.00148330665141
O           -3.70900881107514        0.69747638113865       -1.76382676573557
N           -4.25388938888688       -0.41758584892877        0.21060117972576
H           -5.92982639133555       -1.50523689456480        2.08899747151697
C           -5.43356800192884        0.32714245702524        0.60118908328131
H           -5.29433610675591        0.54143852176812        1.67145563106837
C           -5.75856020450402        1.62571769400086       -0.13991680276520
C           -6.53798558197634       -0.70248647130414        0.46306194659933
H           -4.88823350315302        2.28223845785527       -0.09445193577774
H           -5.94555861071910        1.38616374896373       -1.18528264648562
C           -6.97889530463517        2.35028080430709        0.44126545851179
O           -6.65457077170690       -1.60444715078501        1.45916233858658
H           -7.76778949694553        1.61257219687130        0.62184605212847
C           -6.64831902795004        3.04925448034674        1.75862208500027
C           -7.49725027637112        3.37063196850830       -0.57030156382910
H           -5.86647012048568        3.79076817711655        1.60682866362141
H           -7.52836259586474        3.55654436205476        2.14765639506081
H           -6.30933790844337        2.34257651549241        2.51239817667544
H           -7.80346968140400        2.87784863436113       -1.48961057914213
H           -8.35320214709448        3.90744269269138       -0.16756995363053
H           -6.72048212150628        4.09361297050095       -0.80981573504304
N           -7.21969133103309       -0.74906616651676       -0.59263352965443
H           -7.42735190929311       -0.25536810697516       -2.31152269321613
C           -8.22193739680542       -1.76170461767989       -0.82342803469828
H           -7.87752381805465       -2.75799821213611       -0.51767931991284
C           -9.52621519190838       -1.44020491752162       -0.08564500313851
C           -8.50679631649747       -1.77259780354719       -2.33350891071402
H           -9.86087540410460       -0.43726110251249       -0.34380765452123
H          -10.28950517320178       -2.15603942105911       -0.37715504506569
H           -9.36740267819751       -1.49704092491067        0.98843980899780
O           -7.94719865681142       -0.75946942167948       -2.98265484718478
O           -9.18489827529268       -2.60687637550237       -2.86568578372822
