42
 energy: -62.486133507612 gnorm: 0.000480839672 xtb: 6.7.1 (edcfbbe)
N           -1.56946623608740       -1.02050489344782       -0.25159835370510
H           -0.95554871380674       -1.82599750869268       -0.24881357449264
H           -1.18453775153277       -0.34066322036277        0.39858873956751
H           -2.49018186525295        0.08230602426234       -1.52661628241890
C           -2.92109341392963       -1.39453513504387        0.16704744095300
H           -3.19918683707998       -2.29039018942152       -0.40376846859404
C           -3.07513791405593       -1.68332616763927        1.65714754597512
C           -3.85984314470080       -0.28534211211677       -0.29744586201303
H           -2.80249362416612       -0.80610821364510        2.24022453157159
H           -4.10971717744684       -1.92792158150596        1.87111849374244
H           -2.43938402173430       -2.51677895155516        1.94924333400255
O           -3.40007122852620        0.40438509635085       -1.36278268054649
N           -4.95128458877466       -0.13881810420686        0.29822859582666
H           -7.58666403611048        1.14483692225239       -1.91753824090021
C           -6.00731479134497        0.79025116990821       -0.02073902585553
H           -6.31624321511973        1.18980350247729        0.95677159637248
C           -5.67861256537273        1.96829386127194       -0.94932365197895
C           -7.16356726255866       -0.08160694562127       -0.49934880576748
H           -4.67632243826870        2.31886501043992       -0.70067532638336
H           -5.63052564829348        1.62419212575961       -1.98696656453633
C           -6.65405303871001        3.14983398357054       -0.79902781791074
O           -7.90189670433428        0.30576769959758       -1.55754734237634
H           -7.67201433878701        2.77972925266792       -0.62268897195980
C           -6.26673832067849        4.01466765816127        0.39938515484547
C           -6.65819223619379        3.99711328096316       -2.07136075546628
H           -5.28793377567939        4.46254101871807        0.24097175070419
H           -6.99028160709487        4.81424841828523        0.54115146808650
H           -6.23009039216303        3.42385192142339        1.31160366226173
H           -6.99562301983488        3.42248359408789       -2.93264457847141
H           -7.31951202801464        4.85279900720300       -1.95653030784960
H           -5.65604315749726        4.36521025578459       -2.27999230610927
N           -7.36550392172674       -1.15575764148559        0.12077493156135
H           -6.88589123873235       -2.20301610160813        1.46404758675699
C           -8.38766420434462       -2.11286133781787       -0.21825927491035
H           -9.38215224494896       -1.64942520409476       -0.24697521731383
C           -8.12802446746181       -2.81078614403662       -1.55744060936718
C           -8.36960814352440       -3.17408231248625        0.89788831481646
H           -7.12031479795261       -3.22167176023196       -1.56836297029849
H           -8.84351242477785       -3.61838905907533       -1.68339247048333
H           -8.23200415207348       -2.10294638389027       -2.37547701892171
O           -7.36734757336186       -3.02064930310213        1.75131017312122
O           -9.17459302997316       -4.06162743473802        0.96874854082758
