42
 energy: -62.486133504237 gnorm: 0.000481142907 xtb: 6.7.1 (edcfbbe)
N           -2.28803503305037       -1.67717297866815        1.58694845055865
H           -1.99174851948316       -0.98303113063364        2.26451792513844
H           -1.51967301147553       -2.32014727102337        1.43872290309927
H           -4.16880335677473       -1.79376921971840        1.89157203179217
C           -2.69021135313722       -1.04290212614953        0.33381007650392
H           -2.04663061131206       -0.20669827445774        0.02896904404611
C           -2.72122372140034       -2.08499071139475       -0.78492646628216
C           -4.10912016533561       -0.51644301068360        0.52560989553905
H           -3.36645044182080       -2.91506350752792       -0.50489314600296
H           -3.10263312195091       -1.63146389742661       -1.69470052133129
H           -1.72062743496438       -2.46816231002827       -0.97489372010886
O           -4.79896575807804       -1.16559229958588        1.47454622743492
N           -4.46208070737099        0.46400334249445       -0.17131217445836
H           -7.35014218434651        0.88733822199943       -2.17390286494464
C           -5.77141329497589        1.07152454472070       -0.27275558370140
H           -5.99607819879608        1.55457004514438        0.69205378101962
C           -5.66299800724926        2.15423314159158       -1.35438546568606
C           -6.89595869295457        0.07024885562255       -0.48808960715897
H           -4.70120183190736        2.64610953705053       -1.20207734612424
H           -5.60384012154936        1.68140481539694       -2.34004957210140
C           -6.78015643658108        3.20933979526053       -1.31185569937970
O           -7.62486272017121        0.14148145168854       -1.62643729697278
H           -7.74214379097745        2.72727228238288       -1.09892259943050
C           -6.51827529253524        4.23038523537485       -0.20644521174075
C           -6.88216720291031        3.92116848141742       -2.66082237743579
H           -5.59378365021594        4.76959302131907       -0.40140711972895
H           -7.33160234373416        4.95057418036062       -0.15554398907698
H           -6.43487394037820        3.74519638616990        0.76273235333856
H           -7.13449703470691        3.22579433221982       -3.45970856335020
H           -7.65045140735679        4.68990248211585       -2.62767051728083
H           -5.93480104208792        4.39539181989727       -2.90782861972405
N           -7.09864637521850       -0.82116903246821        0.37312004719113
H           -6.68400201396746       -1.61625549394071        2.01198917488332
C           -8.11684242469800       -1.83025926639228        0.22618582379656
H           -9.07630263306215       -1.40379254690363       -0.09293814153761
C           -7.70112556406546       -2.91596149574114       -0.77420427337313
C           -8.29337143883259       -2.49544482144416        1.59916287076969
H           -6.73073403760812       -3.32264192762289       -0.49558831758225
H           -8.43844548876710       -3.71381800633798       -0.76618027124156
H           -7.63510292087319       -2.49413960393748       -1.77391569945117
O           -7.31206519955571       -2.23978444830829        2.45059450064186
O           -9.22410270249969       -3.20885456762268        1.85985542709142
