42
 energy: -62.486132338016 gnorm: 0.000613155282 xtb: 6.7.1 (edcfbbe)
N           -0.81124236549403       -0.55860691931961        0.32815374362712
H            0.11762206207501       -0.50431723171634       -0.07032185888844
H           -0.88203212091414       -1.44557343066857        0.81914675855249
H           -2.00646718249369        0.51533587472434        1.36664485931581
C           -1.83724913217968       -0.47724409742412       -0.71061361774790
H           -1.54626569518798        0.32456148507702       -1.40033877257421
C           -2.04980667079440       -1.76607910372120       -1.50286520931462
C           -3.12509928068769       -0.01977853461080       -0.03866856560084
H           -2.27538899811141       -2.59139307006679       -0.82887457990924
H           -2.88493916758600       -1.63531144779175       -2.18299779634943
H           -1.15691256477975       -2.01484204256227       -2.07233325356420
O           -2.96340942596754        0.55962220213255        1.16262209520481
N           -4.22362939998996       -0.17684330873045       -0.63264925814639
H           -5.03955830596681       -2.05448131049417        0.18859517683123
C           -5.46753791684535        0.26953552765000       -0.03459057336798
H           -5.34470243551707        0.43698910335881        1.04784921046502
C           -5.92757455583309        1.57085710938202       -0.70129055711509
C           -6.45989192634116       -0.85982645607510       -0.20912436252986
H           -5.05586830038819        2.21879184299866       -0.81576403264236
H           -6.29537712458288        1.32380224929478       -1.69725958526869
C           -7.00781397822612        2.31420087227558        0.09339883788300
O           -6.00277153052500       -2.09073349142669        0.10327826288321
H           -7.73435793934993        1.58190114332673        0.45656015989124
C           -6.40419829363890        3.04608644033698        1.29085240740141
C           -7.72713182923233        3.31181384529501       -0.81259631932095
H           -5.70770740482543        3.81137578790313        0.95392385186543
H           -7.18582731998946        3.52798305635764        1.87341412876982
H           -5.86801503270049        2.36313508571237        1.94492234804031
H           -8.21020000099380        2.80671401013997       -1.64520784913776
H           -8.48820757493473        3.85063263642376       -0.25329202480374
H           -7.02044987090707        4.03625582609351       -1.21242081890140
N           -7.61665357275601       -0.64132439048535       -0.65049375134154
H           -8.75508327030830        0.45475986010854       -1.52601187729660
C           -8.57982594891645       -1.69890666526712       -0.84737641926230
H           -8.12383859643623       -2.59060317996713       -1.29630211960965
C           -9.25671412260226       -2.09951330573288        0.46791379414728
C           -9.65488377400667       -1.15424369934967       -1.80093664899038
H           -9.67823641217379       -1.22064979530214        0.95197430860165
H          -10.05375890851080       -2.80775848797343        0.26010151546402
H           -8.52938881945676       -2.55723899800856        1.13379642684381
O           -9.55361460770948        0.15077400033571       -2.02032667955569
O          -10.51218194610797       -1.84188484496432       -2.28155634635178
