42
 energy: -62.486133513221 gnorm: 0.000480073978 xtb: 6.7.1 (edcfbbe)
N           -0.91847681790301       -1.11214511449942        0.46735288958499
H           -0.68575080702587       -0.48287432552610        1.22833248172140
H           -0.05486237357289       -1.39395213261397        0.01895997854338
H           -2.47621142781943       -1.99025393694212        1.06139907309955
C           -1.81438598331329       -0.46417973491210       -0.48968379897622
H           -1.59072991172489        0.59643864217894       -0.66279332534794
C           -1.77513861352253       -1.20832986370889       -1.82510157958375
C           -3.22643335214065       -0.57125142863382        0.06838536974972
H           -2.00007733463348       -2.26245507194584       -1.67506134674822
H           -2.51054497126221       -0.78199201679415       -2.50064670514323
H           -0.78959492691625       -1.12218242225703       -2.27766910199648
O           -3.37677134128922       -1.61873784141709        0.93050570303786
N           -4.07696890909220        0.26792803622143       -0.28504660196768
H           -5.00725854112282       -1.98626426877813        0.59778072618716
C           -5.47808259070198        0.42556645174458        0.01305071116978
H           -5.54154642084476        0.76359536530304        1.06229786712068
C           -5.99908942218901        1.55487045485488       -0.89246859361807
C           -6.38487866311080       -0.79631797930372       -0.04605887984079
H           -5.13822223109465        2.16225056214700       -1.17472772083589
H           -6.40721071829815        1.10959937320830       -1.79972268855184
C           -7.05480543593254        2.44997697138917       -0.23267424277784
O           -5.93378261718669       -2.00701948041664        0.29880794102745
H           -7.76814629087962        1.81288839275445        0.29880698026277
C           -6.41344681061243        3.41076216226632        0.76700786410420
C           -7.80508732763319        3.24522045444692       -1.30018023380721
H           -5.73648004607004        4.09101744620312        0.25450444462109
H           -7.17650299747814        4.00110079995721        1.26879435281339
H           -5.84743705350019        2.87633902251199        1.52612831780964
H           -8.31466866316686        2.58458547127502       -1.99693028022168
H           -8.54869231223372        3.89125336681221       -0.83962341097734
H           -7.11154223623943        3.86848308780062       -1.86136845630940
N           -7.59052219977547       -0.59902168554677       -0.36872628600010
H           -8.79556019418749        0.39908639459228       -1.26900691525471
C           -8.54986060782653       -1.67830624437297       -0.41680372412534
H           -8.11061349789393       -2.60847399862616       -0.79929261783424
C           -9.15603856887621       -1.94843544464543        0.96501190658539
C           -9.67796301625974       -1.23793980430312       -1.36145273719490
H           -9.55736496886967       -1.02631964628521        1.38109668441520
H           -9.95803688218816       -2.67496777444505        0.86945973884054
H           -8.39308361331632       -2.33776759943825        1.63470630163765
O           -9.61131430388363        0.04469507195825       -1.69901158507121
O          -10.54300625956056       -1.97849556455999       -1.73940339843583
