42
 energy: -62.486133512515 gnorm: 0.000479675135 xtb: 6.7.1 (edcfbbe)
N           -2.07748483620818       -2.02334309636382        1.16678926032859
H           -1.99068235524060       -1.59596544321174        2.08341994664897
H           -1.22455185271191       -2.53692159526542        0.98052002629900
H           -4.00745845050046       -2.26954686978816        1.03674368280372
C           -2.30481223933809       -1.00620207202766        0.14288082009549
H           -1.67784412806254       -0.11061252498627        0.25285061888115
C           -2.07391043506856       -1.61233242923535       -1.24242409539301
C           -3.76301376947085       -0.58782049068211        0.24659030005016
H           -2.71417784521910       -2.48082761635346       -1.38262140693475
H           -2.29977034608454       -0.87464021790810       -2.00679394644969
H           -1.03686696387444       -1.92240798091019       -1.35122760978429
O           -4.57747687062481       -1.52742639702939        0.74697935553008
N           -4.09345382907838        0.55684937371277       -0.15304646521693
H           -5.67061672243163       -0.13482442381826       -2.23202793906309
C           -5.46019666100440        1.04177830465031       -0.14755341828506
H           -5.69258386267960        1.38261350268110        0.86768382942466
C           -5.53803713897680        2.22824349345116       -1.11996108773370
C           -6.46279447332866       -0.03289472455702       -0.49632245836984
H           -4.88957104019611        3.01410356381280       -0.73082176566823
H           -5.12241010274490        1.92620602404806       -2.08608144398840
C           -6.95470030856876        2.77621231550755       -1.32503383799493
O           -6.38402462942661       -0.55849809713020       -1.73783872667172
H           -7.58861810497401        1.98020835834676       -1.73282787499712
C           -7.57200118268801        3.25216844460578       -0.01249418562890
C           -6.91265165926399        3.92221319002529       -2.33489511580755
H           -6.91991316653659        3.97406809931549        0.47451991688220
H           -8.53023126620802        3.72980926128401       -0.20291622018700
H           -7.74060517457842        2.41763776852660        0.66261830504794
H           -6.49023708684838        3.59195376904188       -3.28158557155080
H           -7.91442492621492        4.30071990630436       -2.52224362141307
H           -6.30321647912488        4.73867308762002       -1.95356105285529
N           -7.29318109045477       -0.41445912965537        0.36826568535702
H           -8.05639700497278       -0.24877736078886        1.99325806577086
C           -8.26073432347508       -1.45416468221417        0.09753692465520
H           -8.78032884023363       -1.28564815761866       -0.85421356921488
C           -7.61745045275759       -2.84505822870293        0.07163924329000
C           -9.28820659805189       -1.41990093725263        1.23808899871430
H           -7.04580145259990       -3.00109480515787        0.98379727553493
H           -8.39588994070556       -3.59936246065008       -0.00135741326288
H           -6.94935029706151       -2.92646726207445       -0.78142606215156
O           -8.91700265091478       -0.65347760602954        2.25674892009150
O          -10.31351066807855       -2.04280969364202        1.21727896667729
