42
 energy: -62.486133515343 gnorm: 0.000479740787 xtb: 6.7.1 (edcfbbe)
N           -0.87543690591102       -0.89772921166578       -0.42464403190736
H           -0.44071277704507       -0.39291310788839        0.34083635416510
H           -0.23786111486050       -0.87974917422318       -1.21262836523652
H           -1.99756228242008       -2.18999028799034        0.51159572060229
C           -2.15831351438395       -0.29536016495004       -0.77919542906640
H           -2.14438356017875        0.80485512121878       -0.78823238351482
C           -2.60849380814011       -0.80423831669926       -2.14906033520292
C           -3.19646690946151       -0.76112803887731        0.24696148401266
H           -2.62990930481869       -1.89187363129390       -2.15283385946401
H           -3.60471194710322       -0.43301676674278       -2.37255084137336
H           -1.92563439982327       -0.46552186906363       -2.92590115292382
O           -2.89385300256923       -1.95260528890817        0.82235260638696
N           -4.20108134618325       -0.12821021220082        0.56778360199321
H           -5.31859201957811       -1.68992720399146        1.76881463896878
C           -5.47307769179127        0.43115542684051        0.71574052515828
H           -5.54196079760835        0.82444945152980        1.74061180772912
C           -5.74948264849483        1.56569719938412       -0.28562037394877
C           -6.45627739370646       -0.72603219899958        0.59173769102138
H           -4.88603493564859        2.23390537427676       -0.28071447548029
H           -5.82698174971768        1.12317358175593       -1.27937275583188
C           -7.01882392375040        2.36790733877186        0.02360158401494
O           -6.21310309579101       -1.77318394133082        1.39900289731112
H           -7.82401257251591        1.66411821351383        0.25233444335916
C           -6.81875210868927        3.29167991200112        1.22368614985539
C           -7.42242347886285        3.19012463910220       -1.19936130179402
H           -6.01681458934994        4.00086110501711        1.02811042419188
H           -7.72892546099304        3.85290676185732        1.42175005234075
H           -6.57019952634135        2.73140484183628        2.12161001166730
H           -7.62397864091998        2.54634027271745       -2.05200327932495
H           -8.31936904922345        3.76793406241845       -0.98975702039315
H           -6.62679056991975        3.88145125314828       -1.46978428548523
N           -7.34411293642023       -0.71310638058695       -0.29969490185297
H           -8.05303728508907        0.04009544955836       -1.77977505738022
C           -8.23055804527907       -1.83112364540991       -0.52312719296659
H           -7.69813222937363       -2.78994561703809       -0.48348051803487
C           -9.37454211111912       -1.85853672461227        0.49633409296004
C           -8.83430606481465       -1.64539583738845       -1.92336789397236
H           -9.89599808155720       -0.90315157965078        0.49719685517208
H          -10.07449484443071       -2.64548439870606        0.23027505493077
H           -8.97712023188940       -2.04777366464873        1.49038652929537
O           -8.61351221586354       -0.43947069129844       -2.43525478335854
O           -9.46035696512307       -2.49853221164914       -2.48738379646739
