42
 energy: -62.486133506212 gnorm: 0.000480019242 xtb: 6.7.1 (edcfbbe)
N           -1.08940057356848       -0.19375660315373       -1.62229309563855
H           -0.40438478776177       -0.76791819542858       -2.09769190500260
H           -0.59939548424114        0.35151170508383       -0.91838051230309
H           -2.50932521567181        0.98909382240351       -2.03169921241628
C           -2.11921002747686       -1.01484709775296       -0.98926443017007
H           -2.41900649392626       -1.78151983398178       -1.71509485600695
C           -1.67279634055065       -1.69248240287607        0.30498740268693
C           -3.34209292894236       -0.12086240397658       -0.77501923552750
H           -1.39414974364342       -0.94304420556385        1.04313977781587
H           -2.48278398544146       -2.28840315154665        0.71099224522868
H           -0.81747334784024       -2.33854850278886        0.11636260730133
O           -3.34980742916388        0.98600049408668       -1.52648672342198
N           -4.21445061510905       -0.50093081750314        0.04522204985982
H           -5.25123325723010       -2.15794824033050        0.63945209029205
C           -5.48077081106910        0.13692487577645        0.34946190815895
H           -5.49315007059603        0.22214226527023        1.44752437206794
C           -5.78705388892435        1.50315044714403       -0.26538483662356
C           -6.50964252640223       -0.92186696427821       -0.01034349408384
H           -4.90216343552390        2.13374969607543       -0.17581853655600
H           -5.99296452169728        1.36417877665478       -1.32690598618374
C           -6.96905040212140        2.21477798187828        0.40637279287383
O           -6.18154702614973       -2.17368437874901        0.35708446279294
H           -7.76666068168759        1.48626247668463        0.57568764541970
C           -6.56186650768434        2.81792595758970        1.74985202174623
C           -7.49721098081225        3.31550229734201       -0.51188860161611
H           -5.78288063762956        3.56492253949742        1.60917022942188
H           -7.41507755677945        3.30016124427819        2.22134342920314
H           -6.18796945706899        2.05767628327836        2.43168562778474
H           -7.84602281099460        2.90281833284517       -1.45522182806924
H           -8.32678339805923        3.83819057998227       -0.04149166569523
H           -6.71242309478486        4.03918660622341       -0.72272234540268
N           -7.55509002375743       -0.62048718773927       -0.64060686108804
H           -8.45592956078329        0.56149594184053       -1.66680235131685
C           -8.53206182352285       -1.61029285747132       -1.03032676265681
H           -8.06005748813575       -2.52453912220746       -1.41250585924763
C           -9.45654437579579       -1.98183322926677        0.13401467917344
C           -9.38347505417246       -0.98292325853565       -2.14504316699539
H           -9.90602145477463       -1.08372854255373        0.55331610576563
H          -10.24336429191601       -2.63753440153947       -0.22816126658883
H           -8.88857565996177       -2.49029690727281        0.90909664784153
O           -9.16905120132951        0.31709987960455       -2.30430804621162
O          -10.17727229161699       -1.60734970524947       -2.79236943169688
