42
 energy: -62.486133537977 gnorm: 0.000472052300 xtb: 6.7.1 (edcfbbe)
N           -1.52020310880291       -0.61931761220022        0.61836402316566
H           -0.79445293029437       -1.32580781331754        0.58731482672895
H           -1.55661115266084       -0.26329394865613        1.57015702436529
H           -2.13643059629913        0.86638032463302       -0.42746889435884
C           -2.81958436951536       -1.19223097982347        0.26026810041575
H           -2.67816454689326       -1.73668548304145       -0.68341661468561
C           -3.41110028587068       -2.13613512325779        1.30136515446308
C           -3.74836821134045       -0.02235591316625       -0.05350140473043
H           -3.61418898833034       -1.59874536293654        2.22419826237508
H           -4.34422815310896       -2.54715828774146        0.93454056681789
H           -2.71847722733401       -2.95003380323788        1.50738230166587
O           -3.09088794722280        1.06389469740185       -0.52125021094015
N           -4.97536534699142       -0.16418628563526        0.13927356169448
H           -8.00509090666185        1.31459679606413       -1.54881430531407
C           -6.05689615073249        0.74798442356204       -0.11641367492579
H           -6.32805704125284        1.16159758828731        0.86739343177613
C           -5.81761486744152        1.91544770579357       -1.09525975569603
C           -7.23174269177736       -0.12860225356122       -0.53670543624646
H           -4.75975468004275        2.16840723780028       -1.07669105485535
H           -6.03889118937299        1.58476124597824       -2.11528217215344
C           -6.61235979910794        3.18636800557242       -0.74791084157740
O           -8.19785617003954        0.39679891539269       -1.31867374209270
H           -7.62399664915283        2.92585131433358       -0.40751988078813
C           -5.92716086492797        3.94762977550210        0.38570553401078
C           -6.73271344392723        4.08318416437845       -1.97945423610197
H           -4.93882073055708        4.27670489685905        0.07299982574145
H           -6.50993646245515        4.82253642716515        0.66501734569174
H           -5.81373185354792        3.31912071251835        1.26604333454694
H           -7.26493340320033        3.58107377956488       -2.78586409045684
H           -7.27089507689386        4.99601645479883       -1.73515339247421
H           -5.74403075636998        4.35555608025107       -2.34172694546157
N           -7.27243234585898       -1.30925825080361       -0.11042110304178
H           -6.62351835770547       -2.47809348081016        1.03123922424724
C           -8.33095666065815       -2.23848856899244       -0.41372392264845
H           -9.32324225062041       -1.79657354271686       -0.25497415937395
C           -8.24894350675328       -2.76492924231069       -1.85007369038585
C           -8.15449231904204       -3.42182622808218        0.55544938597113
H           -7.25059823333542       -3.15143078459367       -2.04431216334405
H           -8.97274233835074       -3.56475781432116       -1.97934573775307
H           -8.46322744092355       -1.96466863991695       -2.55358344223719
O           -7.05063455908464       -3.33855006346111        1.28408779790589
O           -8.93285769123811       -4.33280723258057        0.62567693157723
