42
 energy: -62.486133516527 gnorm: 0.000479496931 xtb: 6.7.1 (edcfbbe)
N           -0.90910362400388       -1.24170513780657        0.38405411135874
H           -0.64116310495194       -0.72607279168194        1.21579909782946
H           -0.06298465808983       -1.48689884700500       -0.11644916150841
H           -2.47139299106132       -2.14329068583002        0.89005700931662
C           -1.80209341904543       -0.44613889394485       -0.45818837830165
H           -1.55532716684034        0.62293287253250       -0.48160586822609
C           -1.79676978087262       -0.99189071331612       -1.88637964715539
C           -3.21149916094555       -0.60087607551381        0.10083121423731
H           -2.04024513240972       -2.05225603795309       -1.88437625822550
H           -2.53549121221932       -0.46117718747965       -2.47933485773003
H           -0.81721151486405       -0.85778625988313       -2.34014036810877
O           -3.36645044537543       -1.73899515411377        0.83156454388978
N           -4.04690742512479        0.28952635451960       -0.14727913887482
H           -5.05653372049321       -1.83793328660899        1.10791568976375
C           -5.44741848141245        0.46475487252091        0.13837383621383
H           -5.49430580150518        0.90500740157172        1.14944973690533
C           -5.96061553332040        1.51030937965619       -0.86660533972583
C           -6.36725051736384       -0.74721791459029        0.20581403355796
H           -5.11218777102535        2.14457156670277       -1.12655617266533
H           -6.27740418242575        0.98741008768715       -1.76880938783491
C           -7.10454296283741        2.38743439046828       -0.34443985652372
O           -6.00785989013836       -1.83425518880649        0.89816972286062
H           -7.83345574906957        1.74781809963210        0.16095584643604
C           -6.59354252859092        3.42968727414922        0.64877802384533
C           -7.79331220244952        3.08900621183883       -1.51394922505420
H           -5.88409456239161        4.09724366582861        0.16425648737533
H           -7.41959441608473        4.02603699226076        1.02935433758650
H           -6.09791795623174        2.96333987674442        1.49688530981371
H           -8.21760690383091        2.36910154072093       -2.20911570552549
H           -8.59682622992111        3.72728805320667       -1.15422051113992
H           -7.08035529273600        3.70911554427681       -2.05340270662296
N           -7.50938676362769       -0.63956760914508       -0.32304856187768
H           -8.58822882300259        0.15715176765127       -1.52650151724442
C           -8.48067171501417       -1.70616956326927       -0.25962441683328
H           -8.02032749225917       -2.69481679173189       -0.38325131302873
C           -9.25273748004706       -1.68405076030592        1.06453704058941
C           -9.47912014381267       -1.47212793807570       -1.40261243346859
H           -9.68870688385119       -0.69978419232876        1.22453850774856
H          -10.04763666924218       -2.42380525223451        1.02902078634474
H           -8.58095719763483       -1.91339126573915        1.88794268512860
O           -9.35422124371927       -0.27932589317946       -1.97218535306225
O          -10.30273251157847       -2.28022857465389       -1.73128669735050
