42
 energy: -62.486132369107 gnorm: 0.000607304287 xtb: 6.7.1 (edcfbbe)
N           -2.91717576897313       -1.84616974847545        1.88959594618805
H           -1.97914926612026       -2.17809981153057        2.07552598783183
H           -3.51328589181698       -2.66148020381852        1.76512289991119
H           -4.31094909050622       -0.75524998771901        2.53458959921706
C           -2.95294297447593       -1.01244608855113        0.69041485032669
H           -2.12079590477575       -0.30055470334348        0.75293608122349
C           -2.85910586370411       -1.78641186069862       -0.62442318668649
C           -4.24493050678464       -0.20915447893666        0.74122893654392
H           -3.65064290362309       -2.53121699938815       -0.67330821904084
H           -2.97993529760109       -1.09893918252957       -1.45453207562310
H           -1.89676784333690       -2.28787308561256       -0.70457369415390
O           -4.85488580571106       -0.19494745445520        1.93959246539929
N           -4.63393987991867        0.41917345060998       -0.27806612410368
H           -8.26400312549504        1.43385484781076       -0.78482492739753
C           -5.91653214855647        1.07695198172391       -0.28546795451244
H           -6.02103561910547        1.71946366187620        0.60598021468913
C           -6.02241191689987        1.92900881766716       -1.56535048018749
C           -7.04864041312940        0.07014459492693       -0.18566796569229
H           -5.02030473693487        1.97624577301360       -1.99274549291050
H           -6.65317450856171        1.41765244393423       -2.29763613062805
C           -6.53529043224999        3.35782065427543       -1.33552006259330
O           -8.28435834175941        0.50916111549701       -0.50662325443715
H           -7.40795836097058        3.33839304062332       -0.66719878356577
C           -5.45769274960709        4.21678161881186       -0.67799772865042
C           -6.96566738844416        3.97975928310709       -2.66288614080598
H           -4.60543384393733        4.32205650623210       -1.34510831660386
H           -5.84397184704065        5.20824392392891       -0.45248330308922
H           -5.10943752244120        3.76579372220953        0.24785648768036
H           -7.77099994914995        3.40883310003337       -3.12114701343384
H           -7.31369526125594        4.99877308844858       -2.51117180589032
H           -6.12722751317868        4.00353212062181       -3.35492207013898
N           -6.82343722365855       -1.09747724875671        0.21854252061583
H           -5.71407973732610       -2.14939569739102        1.03039278684897
C           -7.83348578863490       -2.11807792430233        0.35515570466542
H           -8.68195404576145       -1.76714644299956        0.95684284988810
C           -8.35428747651260       -2.61341293982341       -0.99711396233092
C           -7.16526058846724       -3.29185376920244        1.09285566233597
H           -7.51782909229956       -2.89469025941034       -1.63406029290601
H           -8.98830414075138       -3.48110790522527       -0.83802200789137
H           -8.92621687415552       -1.83032709293894       -1.48757668068013
O           -5.88164605950350       -3.07209657920806        1.36024355849534
O           -7.73734759219229       -4.30554030724555        1.38048664502892
