42
 energy: -62.486133520307 gnorm: 0.000479211353 xtb: 6.7.1 (edcfbbe)
N           -1.49859372982649       -1.69080285035863        0.95772922443661
H           -1.28084251725329       -1.15544951356965        1.79176283004406
H           -0.65923875046906       -2.18228004387117        0.67438738957365
H           -3.38436893100750       -2.06510097139568        1.23072023941142
C           -1.97570669267004       -0.81497327050540       -0.10954476561721
H           -1.42913765017299        0.13490525262859       -0.18802151465365
C           -1.89990005944603       -1.54649183034870       -1.45175155812611
C           -3.43401260775325       -0.50624920907184        0.18560811444239
H           -2.47377024249306       -2.47051868114066       -1.41031428222959
H           -2.29444340609005       -0.91102024838424       -2.23962679597117
H           -0.86690311717336       -1.79112438533485       -1.68976553729881
O           -4.06152424167958       -1.41669071454229        0.94817889946760
N           -3.95612759319641        0.53672419518610       -0.29112256411772
H           -4.94132172341476       -1.03007524438462       -1.59957570494917
C           -5.36426916145366        0.82225704771596       -0.10665028055149
H           -5.53871247080187        1.12869645785548        0.93012340952521
C           -5.70863701246010        1.98454743806253       -1.05714965760874
C           -6.25998022071224       -0.36254060425838       -0.39389031397840
H           -4.97283086892582        2.76885784393388       -0.87341757018960
H           -5.56558675206409        1.63581555088986       -2.08309705792169
C           -7.12083765243484        2.55664389242511       -0.91343009802582
O           -5.82590371599225       -1.27071146983979       -1.28995170816352
H           -7.84405129081678        1.75004324025512       -1.06636274310065
C           -7.35465765746996        3.16277272483750        0.46776982415005
C           -7.34758039255849        3.61656818892295       -1.99085765562210
H           -6.62965010790233        3.95010460169919        0.66431182034207
H           -8.35182636142113        3.59240436698362        0.52165009147162
H           -7.27109365885762        2.41031848371553        1.24685209121046
H           -7.21104686043920        3.19517336759299       -2.98415512274767
H           -8.35781024561901        4.01237096405518       -1.92445626536676
H           -6.64708283086368        4.44001780461849       -1.86770093236877
N           -7.42342030349811       -0.37516045648688        0.08941781158074
H           -8.81001339125760        0.50490135017878        0.87901217353552
C           -8.36293678205863       -1.42505400489166       -0.23362734130018
H           -8.34087484823505       -1.68101925888297       -1.30105897606699
C           -8.08763416234082       -2.69146205988813        0.58425301240900
C           -9.76419595547939       -0.90871545226098        0.12159917161806
H           -8.06792563454403       -2.44931447018417        1.64484688514715
H           -8.87199421183163       -3.41936339735981        0.39724524814428
H           -7.12553927543016       -3.11035484814534        0.30042706843450
O           -9.75412248323888        0.23337765091148        0.79865230370562
O          -10.77008568528939       -1.49405326316297       -0.17008398684693
