42
 energy: -62.486133507555 gnorm: 0.000480550237 xtb: 6.7.1 (edcfbbe)
N           -0.93330452432565       -0.46964217868479       -0.54250814181235
H           -0.19697474141681       -0.83835473601672       -1.13270639049172
H           -0.78415665647786       -0.83551063911757        0.39431680606902
H           -1.84434413384359        1.20808143855391       -0.17661540470588
C           -2.24823023754739       -0.88882095115802       -1.03038250488293
H           -2.28053139875987       -0.66192076319624       -2.10431706540677
C           -2.57798201278576       -2.36344527474774       -0.82039893446920
C           -3.28392359883074        0.01498061910672       -0.37660746315242
H           -2.49549506272282       -2.61927822833931        0.23409112220454
H           -3.59998971683170       -2.54249948098225       -1.13624457898203
H           -1.89989485723849       -2.99283763738739       -1.39324730739808
O           -2.80880087889272        1.22726942439925       -0.01557742165995
N           -4.45225321738583       -0.40989305669365       -0.22279935215502
H           -7.46358092968362        0.26138895576339        1.79814120844641
C           -5.54402220328066        0.36522544342120        0.30480843415772
H           -5.38414056104023        0.53954795185013        1.37996127474659
C           -5.71265713963695        1.71710641251096       -0.42461748759488
C           -6.80298269209258       -0.44488988968840        0.09940033267306
H           -4.78253245117485        2.27591714316636       -0.31969800732562
H           -5.85367718028678        1.48089576193287       -1.48132192622405
C           -6.87324597839449        2.59218062174642        0.06055478056745
O           -7.77020260250663       -0.31577955020091        1.08857956833245
H           -7.80154950607979        2.01062678980155        0.05596122113953
C           -6.62468574386204        3.13688451197678        1.46703693461595
C           -7.05744450239147        3.75677204107407       -0.91175555690168
H           -5.72309214836876        3.74579253765424        1.47627853554588
H           -7.45994630999181        3.75719078207641        1.78466167030504
H           -6.49914050079076        2.34314524081008        2.20154363442623
H           -7.29374916213800        3.38868551179751       -1.90691776140935
H           -7.86933999012182        4.40183284375427       -0.58407027034197
H           -6.14757309462399        4.35021627572846       -0.96996158871214
N           -6.92611567434780       -1.15796691427176       -0.91535035714045
H           -9.19369305218279       -0.29466966305481       -0.01671612810486
C           -8.03956698374000       -1.99603893022334       -1.27293580734179
H           -7.70633098762170       -2.56056324313107       -2.15150499911618
C           -8.46746487574958       -2.98215333935623       -0.17685187722646
C           -9.27002269138975       -1.18878959965180       -1.71470003893844
H           -8.85894521567112       -2.46407199542142        0.69593022957426
H           -9.23410976062478       -3.64719501936235       -0.56676508144335
H           -7.60692286714712       -3.57282942807006        0.12858519148025
O           -9.72835160335726       -0.29949929167686       -0.83355794299973
O           -9.80522379771330       -1.35911671022687       -2.77278651556551
