42
 energy: -62.486133505252 gnorm: 0.000480964098 xtb: 6.7.1 (edcfbbe)
N           -1.76653635242932       -1.99975265289570        0.57096916431666
H           -1.39508918316362       -1.58034630033924        1.41723675894959
H           -1.02695091904467       -2.54540113278120        0.14428832485619
H           -3.65641022861326       -2.20816789920386        0.97193397786910
C           -2.24575412276846       -0.96990521723751       -0.35040531336172
H           -1.59853762156564       -0.08401070786646       -0.40524909309557
C           -2.40530792501175       -1.56065159986621       -1.75154736145303
C           -3.61873157386336       -0.53327931104899        0.12889981978553
H           -3.05158108919478       -2.43503702612087       -1.71751760158096
H           -2.85162512496153       -0.81920754023792       -2.40666550958998
H           -1.43718573220758       -1.85393263523179       -2.15240223200412
O           -4.27216472644522       -1.45439388145135        0.86483867575105
N           -4.04330426341844        0.60347430956576       -0.18791698738551
H           -6.19060612793157        0.12715378468725        2.24940764776673
C           -5.37283687470179        1.07752399816768        0.12991247972700
H           -5.28989816042342        1.65629575944403        1.06209787692704
C           -5.80540659544042        2.00841211951471       -1.01026728564255
C           -6.38842676683861       -0.02811912608378        0.31871154666723
H           -5.00164058212688        2.72693224266291       -1.17374681294068
H           -5.90303971696252        1.38920633978643       -1.90146815932613
C           -7.12593227410590        2.74162842723788       -0.75790680626893
O           -6.79130481820205       -0.28190847629441        1.61577447326806
H           -7.89479231639032        2.00315526455463       -0.50618212292963
C           -7.01590587909785        3.74886603131623        0.38537322433994
C           -7.55518973693114        3.45701986195172       -2.03734163094831
H           -6.22124311400602        4.46438140226719        0.18413912083977
H           -7.94997773528007        4.29521730486484        0.49365441376104
H           -6.80726439478331        3.25980293341007        1.33393238632950
H           -7.67734370144134        2.74412742148901       -2.84847877597514
H           -8.50170969557349        3.97099670137802       -1.88817179586733
H           -6.80698543134463        4.19057755376249       -2.33057316786785
N           -6.83063886669122       -0.62203153941711       -0.68872209268988
H           -8.54726585775859       -0.49389330064439        1.22559115982701
C           -7.78226037820180       -1.70113645176557       -0.71725306254181
H           -7.77965094352825       -2.06153144032924       -1.75277064302518
C           -7.45738750857230       -2.87017667533523        0.22270704650651
C           -9.21153482525458       -1.21970610289633       -0.42593616863983
H           -7.52244135580530       -2.57274507436601        1.26673128861458
H           -8.15398651671696       -3.68488099333375        0.04102435122452
H           -6.44500871896862       -3.21532814561989        0.02723794977123
O           -9.38149141755397       -0.57068318477511        0.72583947266927
O          -10.12584208699985       -1.43057109317929       -1.17084331657363
