42
 energy: -62.486133504418 gnorm: 0.000481183698 xtb: 6.7.1 (edcfbbe)
N           -2.28123279848119       -1.72219913782802        1.54042989469825
H           -2.13220718558741       -1.08070451431513        2.31237335978353
H           -1.42859668888819       -2.25180118694380        1.40436782354547
H           -4.17516067993469       -2.04294450402765        1.63733045532131
C           -2.64246364492744       -0.99514598688026        0.32569440226280
H           -2.04535903611298       -0.08962779313298        0.14980689188305
C           -2.51549938333272       -1.92362374646637       -0.88335079606431
C           -4.10726754002421       -0.58894629888597        0.46077528440561
H           -3.11103802553431       -2.82152030151317       -0.72892135229958
H           -2.86829918215578       -1.41308323631948       -1.77462326986393
H           -1.47753575729831       -2.21419400251015       -1.03216431284699
O           -4.81909857054813       -1.41656184403683        1.24121369218013
N           -4.46993926539294        0.44945313776280       -0.13815018314850
H           -7.32028158355402        0.81348382214457       -2.19961574970820
C           -5.78092177276700        1.04382520865953       -0.26728224455153
H           -5.99800494541997        1.54378028046570        0.68979218227360
C           -5.66139079106631        2.11645673090571       -1.35877070232378
C           -6.92380262011327        0.06059078381456       -0.47030219303197
H           -4.70295141229040        2.61227404592587       -1.19864562642016
H           -5.58996189826611        1.63605483099714       -2.34017616179650
C           -6.78228955830620        3.16796906355629       -1.33890368192310
O           -7.62297615457109        0.09653616389446       -1.62874987717025
H           -7.74727358272546        2.68159958969232       -1.15137153782848
C           -6.55081000291184        4.18616075239037       -0.22415699031043
C           -6.85397049230047        3.88380270047871       -2.68755552979424
H           -5.61878462935657        4.72232380697861       -0.38936996317396
H           -7.36291780140462        4.90898043014395       -0.19738923970314
H           -6.49968396687190        3.69972979017173        0.74665740549987
H           -7.07892566686515        3.18895943369449       -3.49499499767073
H           -7.62938665937298        4.64585513613471       -2.67247547506866
H           -5.90433767583359        4.36675913892829       -2.90740876109706
N           -7.16050158013715       -0.78684733638001        0.42520751800401
H           -6.70320593296944       -1.61373631088669        2.03776330431570
C           -8.19714755786759       -1.78138626934537        0.31361826766169
H           -9.14747770950057       -1.34948108562261       -0.02414184502062
C           -7.79925604931822       -2.91542800717948       -0.63961680886605
C           -8.38088691967351       -2.38803414974869        1.71203457433869
H           -6.84159270102972       -3.33320596197745       -0.33495453477806
H           -8.55584785414242       -3.69465135971782       -0.60946814983886
H           -7.71365932708220       -2.53376293997236       -1.65395940092251
O           -7.35262977787148       -2.17858917306768        2.52094435220067
O           -9.35161684694469       -3.02114562292973        2.02744527762132
