42
 energy: -62.486133515731 gnorm: 0.000479767558 xtb: 6.7.1 (edcfbbe)
N           -1.74574277742280       -2.02637699483897        0.28719429609955
H           -1.28143959821250       -1.54406484189156        1.05005771382662
H           -1.04816495882721       -2.56981988480664       -0.20777023100083
H           -3.58295883077587       -2.23895785791533        0.94398249391914
C           -2.38504908531356       -1.06807855141074       -0.61419187253882
H           -1.76854971219838       -0.18836457441706       -0.84368887413443
C           -2.77249524086318       -1.76757010286350       -1.91773666729696
C           -3.66677733752016       -0.60046823241570        0.04696443757247
H           -3.39063905944070       -2.63625114316136       -1.70361627715132
H           -3.33861265491472       -1.08249685926780       -2.54045277768325
H           -1.88330717904317       -2.09037031670332       -2.45544562201797
O           -4.21093073572487       -1.48995663931593        0.89683587792823
N           -4.10853994035305        0.54443394425289       -0.22186306656182
H           -7.30721325743043        0.75503677377516        1.73003201878217
C           -5.39776801026417        0.99697610774136        0.24268316138414
H           -5.29717360721694        1.32737683327094        1.28884420257832
C           -5.78791127264555        2.18923370100303       -0.65060269113414
C           -6.46671295475329       -0.06874856105699        0.17437448875403
H           -4.93460159353421        2.86850831950335       -0.66536878609062
H           -5.91499097820778        1.79499961322492       -1.65972741422618
C           -7.04874267655132        2.95321090565078       -0.23437849495853
O           -7.48302995262873        0.03951660294183        1.10735202413228
H           -7.87940504332472        2.24882129512201       -0.11338576285441
C           -6.84581255479853        3.71995780575691        1.07248603784703
C           -7.43348662653793        3.93032007247378       -1.34440712957499
H           -6.04651272816759        4.44867351720164        0.95644696557838
H           -7.75548771398639        4.25130092286851        1.34384836137256
H           -6.58240964906008        3.06317918874721        1.89961602000406
H           -7.63369066264395        3.39657313857512       -2.26986685283490
H           -8.32662715278066        4.48699722422679       -1.07017177656996
H           -6.62709428539190        4.63831037966259       -1.52221874864051
N           -6.40451621879151       -0.95408955355068       -0.70353460461668
H           -8.83204078726165       -0.41505314290045       -0.01263281584114
C           -7.31122708224949       -2.05233008513302       -0.90821505071484
H           -6.82937280218270       -2.68796530664582       -1.66061950438840
C           -7.58507131463210       -2.88326395156111        0.35280621907772
C           -8.65185502691713       -1.60524032121409       -1.50873633367956
H           -8.15378560234726       -2.31753725048131        1.08758565874984
H           -8.14304119276617       -3.77712383177392        0.08533859085553
H           -6.63703127608975       -3.17184527114840        0.80092575114856
O           -9.31626637178564       -0.67866544484188       -0.81789826583702
O           -9.09010574653849       -2.07081362808729       -2.52190946865127
