42
 energy: -62.486133513396 gnorm: 0.000480081096 xtb: 6.7.1 (edcfbbe)
N           -1.17591152833194       -0.52623344041267       -1.38633048924500
H           -0.56293509125183       -1.16298063615393       -1.88090352206039
H           -0.68053603931647       -0.20448478029612       -0.55901850718684
H           -2.32179930752420        0.96791293989701       -1.72860820304317
C           -2.41518563773376       -1.19593503931979       -0.99214720667929
H           -2.78881956524822       -1.73514015934559       -1.87152226665965
C           -2.26936821587239       -2.17363722290950        0.17053452164045
C           -3.44996075758223       -0.11353640497303       -0.69213877721887
H           -1.87055754011609       -1.66100511866726        1.04381790590178
H           -3.24618957626450       -2.57095600535468        0.42197009913127
H           -1.60134490768475       -2.98994189106690       -0.09728262038330
O           -3.18121594108317        1.07105045869521       -1.27093618148140
N           -4.43262942258007       -0.42377467557033        0.01952418632399
H           -7.55667682452973        0.19356013731011        1.78613859814665
C           -5.55485992099277        0.39104969499974        0.39673444132020
H           -5.47323243775337        0.51596723950472        1.48770609873688
C           -5.68776388199327        1.77039165088578       -0.27908070748709
C           -6.79362006675002       -0.42739542336771        0.09994502270226
H           -4.77059625736695        2.33192867348819       -0.09970825790628
H           -5.76921336221255        1.59402181424937       -1.35257955047677
C           -6.88297661973301        2.60878339826910        0.18915294389761
O           -7.81428526418949       -0.35356728431394        1.03461460035549
H           -7.80128230097065        2.01650565147973        0.11144191221094
C           -6.71326877716649        3.08918695266111        1.63075395103038
C           -7.03837951448121        3.81683667306776       -0.73362257613889
H           -5.83155774932598        3.72169025035218        1.71098345891958
H           -7.57913385489118        3.67124737390318        1.93896671552931
H           -6.59775811114268        2.26446482062896        2.33218427971501
H           -7.22052790265405        3.49450124069043       -1.75555608676860
H           -7.87479174725218        4.43499110050320       -0.41531799782509
H           -6.13561647057295        4.42365463950487       -0.71954209358053
N           -6.84677193852553       -1.10110127100664       -0.94904645987012
H           -9.17988070319681       -0.30822351149857       -0.15174426824464
C           -7.92432247989046       -1.94316533299422       -1.39797432997418
H           -7.53121789243360       -2.47253134729039       -2.27367965624175
C           -8.39969799851321       -2.97130212953276       -0.36216124172806
C           -9.13694772830185       -1.13500855154816       -1.88483737898824
H           -8.85536108415500       -2.48926084359245        0.49999442795467
H           -9.12690419996327       -3.63712694797654       -0.82029446717343
H           -7.54806243027412       -3.55561283845049       -0.02145906140597
O           -9.66375723455779       -0.28916092423923       -0.99920228845129
O           -9.60127296887904       -1.26868899600099       -2.98083387458690
