42
 energy: -62.486133510580 gnorm: 0.000480757671 xtb: 6.7.1 (edcfbbe)
N           -0.99974613017083       -0.91715785763624        0.10149664727542
H           -0.13797143749346       -1.15067956932026       -0.37693423741137
H           -1.19647874192549       -1.66865960400346        0.75730045514034
H           -1.85237285155832        0.57650514903769        0.98871914281684
C           -2.10562637911972       -0.79306118205231       -0.84957037363332
H           -1.75423583841583       -0.15871980133909       -1.67364225129542
C           -2.62202708567064       -2.11351074497150       -1.41366743112187
C           -3.21667679950559       -0.02262428263971       -0.15303459441318
H           -2.90464782875503       -2.78058941803530       -0.60182745009131
H           -3.50421984278098       -1.92053018858442       -2.01404038247308
H           -1.85944625231824       -2.59619244340313       -2.02147609920721
O           -2.80600880448404        0.75766538329859        0.87155240176479
N           -4.39712327591394       -0.13508664292513       -0.56043955522562
H           -6.97420602637470        0.52799095708785        1.93547073819191
C           -5.47303954987326        0.61332739552496        0.03218915402748
H           -5.18785392893144        1.03126385288280        1.01253507895665
C           -5.84965418646594        1.75077928340936       -0.93712782012459
C           -6.65898917646014       -0.30586373977613        0.19666695024377
H           -4.96595523307004        2.37545281706411       -1.08327525858202
H           -6.09166731408049        1.27288449873700       -1.88709414254361
C           -7.02400707836055        2.62170311959836       -0.47945683924949
O           -7.37916533011739       -0.14358020653185        1.37287326773583
H           -7.85502233206609        1.97527919451794       -0.17636854991390
C           -6.63718129614249        3.52300856690487        0.69254066253816
C           -7.50659956789938        3.47644736185982       -1.64988042370167
H           -5.84528831634372        4.20625008033884        0.39280123542968
H           -7.49288122493158        4.11196416907118        1.01508509552357
H           -6.28068312560798        2.95112278713614        1.54677714524379
H           -7.84181946087709        2.84524098530813       -2.46878559496434
H           -8.33664802108870        4.10818730628111       -1.34254052832417
H           -6.70301605581524        4.11454228481180       -2.01131028238099
N           -6.94289358409112       -1.12740408916719       -0.69663529266412
H           -9.01827042150200       -0.34458463736521        0.63655091266913
C           -8.01979549233035       -2.08120229516727       -0.70574556562347
H           -7.84253124095798       -2.70947955341403       -1.58627450524018
C           -8.08509400417590       -2.97299634740717        0.54210760153867
C           -9.39141772814424       -1.41949825040552       -0.91178090012610
H           -8.30998868628362       -2.39401259144346        1.43526359120284
H           -8.85410147613240       -3.72972205247606        0.40834890479156
H           -7.12472930051951       -3.46429501237327        0.68094666936501
O           -9.72183187426890       -0.47893344974505       -0.02650657867864
O          -10.13527895142859       -1.74325686579741       -1.79287582555152
