42
 energy: -62.486123791792 gnorm: 0.000708082565 xtb: 6.7.1 (edcfbbe)
N           -1.37783593279110       -1.55172602113357        0.22527842799281
H           -0.82079104686494       -0.78488367376949        0.58877714109974
H           -0.74430759575120       -2.23289096054150       -0.17694088278073
H           -2.95278296006510       -1.53835326957973        1.38166727096365
C           -2.32342336319265       -1.07011583169712       -0.78241572027136
H           -1.90707746988928       -0.31289406590517       -1.46067848741032
C           -2.85150821091709       -2.24437884409876       -1.60770638268336
C           -3.49943296790840       -0.45942425609106       -0.04836632861962
H           -3.25107841453779       -3.01286766949969       -0.94985810308987
H           -3.64478993313701       -1.89342104428616       -2.25985920059081
H           -2.05439285793111       -2.67579420660665       -2.20966436111388
O           -3.70758772281138       -0.94456879871724        1.19271136047029
N           -4.21765532544313        0.39522561045022       -0.62329395555958
H           -7.02736555800141        0.48734408665214        1.79947835454583
C           -5.38519967989939        0.91214377332056        0.05374373844648
H           -5.14721478800795        1.14716622663402        1.10378735078344
C           -5.82872694817096        2.17378335540745       -0.70472129673167
C           -6.49019673593876       -0.11654350120560        0.02390943380809
H           -4.97961368383940        2.85864815768799       -0.73101378158982
H           -6.03322267204503        1.85749403272509       -1.72789046840833
C           -7.05304243279407        2.89162154796573       -0.12858128598652
O           -7.33657403956094       -0.12364859560891        1.11996211259769
H           -7.86585080720958        2.16947163576377        0.00709743199464
C           -6.74443678677205        3.55587451851904        1.21319006324087
C           -7.53430804727058        3.94647879826069       -1.12334114046191
H           -5.96279928699188        4.30243014037489        1.08896857101798
H           -7.63119705548210        4.05173219169825        1.60196109845069
H           -6.40774270655024        2.83821591500620        1.95893869175452
H           -7.80993446804444        3.48256580542313       -2.06671695388508
H           -8.40330392937262        4.47077864124393       -0.73275239000655
H           -6.74916160383010        4.67487331346674       -1.31356937463010
N           -6.60399319591151       -0.87679764888750       -0.95947203467516
H           -8.86425776939809       -0.38293884851070        0.19170950718492
C           -7.57927812737730       -1.91756037290907       -1.15207247245061
H           -7.25496808462164       -2.45373467192807       -2.05163823707544
C           -7.68477435853526       -2.91058135664406        0.01380753470660
C           -8.98020937340305       -1.36410507320892       -1.45584615999017
H           -8.07507316824482       -2.43433251807976        0.91062714329191
H           -8.34257981185311       -3.72959228887306       -0.26641021906702
H           -6.69730158026707       -3.30857213941849        0.23688961724631
O           -9.48257058680110       -0.52570633877382       -0.54979630542260
O           -9.59863016178041       -1.68244192517927       -2.43096423779629
