42
 energy: -62.486133515526 gnorm: 0.000479268851 xtb: 6.7.1 (edcfbbe)
N           -2.04206883511226       -0.02721157790203        0.76141773602267
H           -1.29034940466454       -0.44071553105474        1.30396651727356
H           -2.59625369300663        0.55284578805641        1.38279826288135
H           -3.79635829746431       -1.16231932105781       -2.06577379520438
C           -2.89704638378289       -1.07245827081165        0.21959236412227
H           -2.34252116537210       -1.54886185989657       -0.60356244861848
C           -3.29659869339655       -2.14719815633647        1.24223911905397
C           -4.14611693514215       -0.41396199366588       -0.32391098137439
H           -3.84974390556214       -1.68389774575682        2.05466717333785
H           -3.92218353135760       -2.90810404871020        0.78364871777258
H           -2.40568865780497       -2.62655713729423        1.64319425760183
O           -4.46040299050353       -0.61846071702372       -1.62354926532598
N           -4.84316879501576        0.27313039090619        0.46541919341493
H           -8.15657863044315        1.29855104856420       -1.14735484361361
C           -6.03188295392495        0.96294074998210        0.02483994381305
H           -6.32878485997550        1.58179471595453        0.88542827171268
C           -5.81677491518612        1.87691605985118       -1.20012567340667
C           -7.15593520488707       -0.03234215037523       -0.18632715801736
H           -4.74291573441478        2.03726183001884       -1.31150220726087
H           -6.15284191714141        1.36200622861377       -2.10413149775719
C           -6.49657215913642        3.24957868161034       -1.07613074312258
O           -8.25792172241608        0.38808097276023       -0.84198477654967
H           -7.50064543837686        3.13643565122925       -0.64407762782197
C           -5.69268383436553        4.16347773662258       -0.15345773334764
C           -6.63875369566236        3.88959032034808       -2.45623398735446
H           -4.71738838919647        4.37065283233707       -0.58819048732339
H           -6.21105275849456        5.10821572730777       -0.00554552155513
H           -5.53951456017537        3.70028236319459        0.81817660027779
H           -7.25911140825965        3.28039941173951       -3.11109973747353
H           -7.09379825269810        4.87388649963394       -2.37420190454776
H           -5.66140446880061        4.00229587597425       -2.91971830057881
N           -7.04018210137167       -1.19334284298700        0.28215632442133
H           -6.22329330493186       -2.25631571430593        1.46213945391221
C           -8.06353141524380       -2.20149120458677        0.14330767873796
H           -9.05594018422145       -1.81148030452178        0.40500818852995
C           -8.11834456223786       -2.77700378487400       -1.27521087364695
C           -7.70932575911813       -3.33082200256239        1.12511704672176
H           -7.12502859440209       -3.09954317602374       -1.58123728245976
H           -8.79031413633124       -3.63053277684580       -1.28769717483816
H           -8.47567271334670       -2.02253794148170       -1.97114356273367
O           -6.56735658235501       -3.13102268907161        1.77071677536276
O           -8.39413971386991       -4.30418756687302        1.27726886366387
