42
 energy: -62.486133503496 gnorm: 0.000481577989 xtb: 6.7.1 (edcfbbe)
N           -2.02081286925273       -2.34531548351474        0.43800175725064
H           -1.25673252750555       -2.34189803697295        1.10028995371254
H           -1.81085679860915       -3.02129614678812       -0.28634012409889
H           -3.76236098514726       -2.28758473565940        1.02620021047750
C           -2.26349052792959       -1.01723852494251       -0.13588049454039
H           -1.56423836002908       -0.27618053578929        0.26533149660089
C           -2.16700394098680       -1.01281016891832       -1.65947028176773
C           -3.67351302371449       -0.58857106580719        0.26814094738071
H           -2.86574105901044       -1.73265211907637       -2.08036947196175
H           -2.42755019584355       -0.02586275786337       -2.02754037777929
H           -1.15732566110740       -1.26279701168613       -1.98088062625094
O           -4.36873730045170       -1.51416221119828        0.94900112081730
N           -4.06425310731275        0.56385496741599       -0.03955128559174
H           -6.47209114889306        0.13706979993254        2.25200906438833
C           -5.40301950434546        1.04177662953759        0.22646530031474
H           -5.36683526726419        1.58586413876087        1.18250893152269
C           -5.76994350522309        2.01624012215078       -0.90101513132769
C           -6.43673693731456       -0.05950771995173        0.31519311707548
H           -4.95713193900660        2.73705940815708       -0.99512130078522
H           -5.81955543961115        1.42915512503181       -1.81773098523926
C           -7.10069841868382        2.74505182409083       -0.69231689072179
O           -6.98614478753839       -0.29537214995676        1.56021368416942
H           -7.87856358478394        2.00332516025457       -0.47982348738620
C           -7.03519194247941        3.73761043490270        0.46715716764928
C           -7.48227109917787        3.47662573001396       -1.97762579544954
H           -6.24279912192741        4.46385242583442        0.29806774171566
H           -7.97775291372837        4.27292365005309        0.55613401778437
H           -6.84683740611098        3.23824709204005        1.41469131195498
H           -7.58165950790695        2.77322469027820       -2.80011002985512
H           -8.43011174949346        3.99524022998760       -1.85464659158463
H           -6.72015756147094        4.20830375218614       -2.23763043215782
N           -6.75521191038729       -0.67189970898976       -0.72752699736202
H           -8.68226851285534       -0.52092981633730        0.97074267164200
C           -7.69422169079260       -1.75540288863192       -0.85062736504405
H           -7.57143504096593       -2.12939222944452       -1.87407433023027
C           -7.47346512581789       -2.91012233741404        0.13628297811872
C           -9.15002410010072       -1.28105759695995       -0.73164021100560
H           -7.65734908742439       -2.59826313971121        1.16174221383376
H           -8.14174162885867       -3.73122742567029       -0.11124935330722
H           -6.44376426193950       -3.25142464532717        0.06214232830985
O           -9.45330916050135       -0.61073292446964        0.37980258290427
O           -9.97328251962595       -1.51575001320775       -1.57001176363944
