42
 energy: -62.486143125536 gnorm: 0.000732950578 xtb: 6.7.1 (edcfbbe)
N           -2.26907231209732       -2.55040137242118       -0.62755090497773
H           -1.31908404659210       -2.87049434801905       -0.77386544635898
H           -2.80780193301028       -2.80316394474638       -1.45233015180307
H           -3.70963019244942       -2.55784881801150        0.63492067382176
C           -2.30878173407700       -1.09970564306072       -0.44774880668164
H           -1.57164740116744       -0.84835376379316        0.32636021008716
C           -2.01185428136801       -0.29536469730665       -1.71075197157849
C           -3.68725548577011       -0.76020470353755        0.11044282476801
H           -2.73098566433725       -0.54650931437534       -2.48704753326784
H           -2.10321570080307        0.76250760937231       -1.49234492815574
H           -1.00690117497568       -0.50707235259563       -2.07146316591802
O           -4.26928559557352       -1.76792967980992        0.78141956174421
N           -4.11027060353609        0.41508851485617       -0.01278439804332
H           -7.35241320257140        0.83476934733887        1.82270033276219
C           -5.42223198671236        0.88236538176911        0.34503731977433
H           -5.34802825722250        1.33379006348254        1.34671938663639
C           -5.77354111343143        1.97671661884545       -0.68584785745497
C           -6.51945915917797       -0.15498310302645        0.35977760426053
H           -4.91245553365167        2.64325167788799       -0.74867445179772
H           -5.87887763200640        1.47624939027676       -1.64953118381313
C           -7.03694083339410        2.79106375875053       -0.39100080543369
O           -7.53759722198556        0.06314371923470        1.27436476265804
H           -7.87930000977631        2.11071977021437       -0.22312969698625
C           -6.86405066386889        3.68951175094930        0.83353960339291
C           -7.37662118190621        3.64942566531870       -1.60878230726197
H           -6.05588196415153        4.39778879194954        0.66457732596360
H           -7.77674782419866        4.25077953127789        1.02154276031373
H           -6.62894113499008        3.12225790317298        1.73232751229306
H           -7.54907581934406        3.02381163718835       -2.48077925469454
H           -8.27500515767449        4.23390748926475       -1.42430988324917
H           -6.56020094980258        4.33312323622310       -1.83054735075916
N           -6.48212516207741       -1.11692961826747       -0.43505133820824
H           -8.89669598625037       -0.43951089412955        0.18671821430570
C           -7.42714914027685       -2.19650295414343       -0.54712196500864
H           -6.96253217987796       -2.91738205232053       -1.23016583418790
C           -7.74414352024250       -2.89673825573215        0.78102139833665
C           -8.74029364416310       -1.75181795839636       -1.20621378094658
H           -8.30762679108442       -2.25001199150357        1.45011290014028
H           -8.32363029171471       -3.79617490006387        0.58810554762633
H           -6.81070227858244       -3.16765379843226        1.26895956904917
O           -9.37920023419352       -0.74894190468865       -0.60366381055532
O           -9.17893628108085       -2.27860180472153       -2.18900581739677
