42
 energy: -62.486132310153 gnorm: 0.000618164821 xtb: 6.7.1 (edcfbbe)
N           -1.45330538059984       -0.93144790669096       -0.22122063530657
H           -0.81707643931343       -1.71920101096394       -0.24700879237771
H           -1.13959060459432       -0.31166119203083        0.52074900173525
H           -2.31841498808101        0.29080174702856       -1.43424016767743
C           -2.81971237075865       -1.37551307126787        0.05646324349007
H           -3.03521789606179       -2.20386608693585       -0.63132131429459
C           -3.06608521782134       -1.83721234816832        1.48930827676358
C           -3.75219711571236       -0.23553461554659       -0.34128394217166
H           -2.84129468102077       -1.03287793674386        2.18605800621470
H           -4.10942400727389       -2.10765913781604        1.60627258594115
H           -2.44094352324243       -2.69644261473892        1.72403051029823
O           -3.24433762342662        0.57505887291739       -1.29479445758392
N           -4.87770135822865       -0.17000128344610        0.20224764204418
H           -7.27197669961613        0.94087792396610       -2.15491013967269
C           -5.93665884796156        0.77497341496682       -0.05689613345531
H           -6.22813476908345        1.13066942114351        0.94129723372190
C           -5.62780756142999        1.98720556649194       -0.94395989303998
C           -7.09254194252742       -0.09207650408349       -0.54560798898498
H           -4.67948817701614        2.41034989188783       -0.60994326700948
H           -5.46671332444096        1.66601750713385       -1.97791277581503
C           -6.70585226594832        3.08253098918119       -0.86790837852505
O           -7.66934376328056        0.16690293071324       -1.73460796177399
H           -7.70158690753405        2.62500525810230       -0.81969448114490
C           -6.52574189131619        3.93306661537977        0.38809438092295
C           -6.63918728486826        3.97194708061696       -2.10935782874150
H           -5.56793295966798        4.44847705882111        0.36146294496535
H           -7.31402327088002        4.67930530793030        0.45619676966616
H           -6.56180966541737        3.32005358820960        1.28531855752948
H           -6.83776242351887        3.40447311118484       -3.01718147627188
H           -7.37338928725987        4.77150888628941       -2.04408113996366
H           -5.65203850955748        4.42058071755270       -2.19722995386930
N           -7.42466482515558       -1.06026437769163        0.18377102710022
H           -7.11690990112570       -1.97268294442600        1.67124214596666
C           -8.44332805866284       -2.02290884253692       -0.15285347839486
H           -9.41050207503854       -1.53682091929874       -0.33347086171626
C           -8.08429504887211       -2.87851068945486       -1.37249043637119
C           -8.57965417801621       -2.95173631589333        1.06863313914986
H           -7.09541721108062       -3.31296024560825       -1.23834772744975
H           -8.81411654976860       -3.67711815473225       -1.47322888211442
H           -8.08589888216015       -2.26997901626012       -2.27276985093959
O           -7.65815657630889       -2.73672868208904        1.99630568680933
O           -9.42595721007621       -3.79862783596931        1.15380608866578
