42
 energy: -62.486132355503 gnorm: 0.000613021872 xtb: 6.7.1 (edcfbbe)
N           -2.77779255624601       -1.75691358437612        1.82446072554376
H           -1.89048741551102       -2.23262612696916        1.93107356045007
H           -3.51502570050142       -2.44791316434207        1.94773376005297
H           -3.84780857549800       -0.31564401892312        2.41926844253962
C           -2.88966628066853       -1.14922521550955        0.50018761253137
H           -1.97947603719120       -0.56069354316966        0.32771434870907
C           -3.07495662171579       -2.14683498154374       -0.64220925079852
C           -4.06127947253876       -0.18203045965925        0.56089863284781
H           -3.95084997868011       -2.76374886170908       -0.45287828909556
H           -3.22756287759508       -1.60773404030674       -1.57071451837560
H           -2.20195309784285       -2.78993481456555       -0.73354777731769
O           -4.43255880893515        0.17516124317768        1.80416796746302
N           -4.62176353736464        0.20097116389433       -0.49816023961834
H           -7.80000976528954        1.02810507173806       -1.91637803912374
C           -5.80236040651698        1.03893420300746       -0.42117560176200
H           -5.85419677977259        1.56007914472146        0.54550264745192
C           -5.76336956347494        2.05692255307329       -1.56460505884601
C           -6.98043514388183        0.07273232282157       -0.47175358726545
H           -4.73531790683009        2.41631288365962       -1.63832297103705
H           -5.97388360762397        1.54917509312874       -2.51088323463048
C           -6.69839101335329        3.25982525010379       -1.35956159626739
O           -7.97474053673688        0.26089240823379       -1.35557773435193
H           -7.65437392505688        2.92130662387898       -0.94016878072184
C           -6.08666344097851        4.25585875554428       -0.37612080699667
C           -6.97118066391453        3.95013146045763       -2.69566983152842
H           -5.15900735139048        4.65919984890659       -0.77630460979842
H           -6.77102098925335        5.08178332796876       -0.19670694216150
H           -5.87005572682457        3.78120366233187        0.57759561899780
H           -7.46243013132646        3.27858345201270       -3.39779022617731
H           -7.61185790329712        4.81684275714519       -2.55163139945490
H           -6.03773807979813        4.28594732880832       -3.14181160368881
N           -6.93505445959765       -0.88193237463910        0.34532503925516
H           -5.94409728513775       -1.60361486649573        1.58468887908012
C           -7.85099876639863       -1.98553986633552        0.45216081281748
H           -8.79612090926961       -1.65576031112501        0.90461334364925
C           -8.15092489046539       -2.70449076722473       -0.86469216421798
C           -7.18979587117696       -2.97515360073124        1.43512761894932
H           -7.21894926745836       -2.93868422321546       -1.37594601031377
H           -8.67819361111410       -3.62933680757084       -0.64711510320334
H           -8.76073033278618       -2.07995052651849       -1.51098734002695
O           -6.05939380234777       -2.51759886915985        1.96206949184729
O           -7.64371818371031       -4.05663337046055        1.68705946739878
