42
 energy: -62.486133509896 gnorm: 0.000480376871 xtb: 6.7.1 (edcfbbe)
N           -1.87827008599148       -1.50601259365612        1.30746232119151
H           -0.90525324113699       -1.77903829799461        1.24593730318227
H           -2.41106166312804       -2.32843578740943        1.57742940391649
H           -3.00967085119989       -0.17886903384740        2.08474612012972
C           -2.36493781611924       -0.99892058494787        0.02553965543093
H           -1.60605059746036       -0.30938778475763       -0.36526268932250
C           -2.65006277193275       -2.07867610144476       -1.01672137478595
C           -3.61020788222907       -0.16922595020400        0.31149083365724
H           -3.39343811900227       -2.77680643252449       -0.63674792704165
H           -3.04296692379079       -1.61697915072059       -1.91590048040760
H           -1.74057884580315       -2.62523881772145       -1.25861069060021
O           -3.75426675011098        0.21699052884607        1.58728071687614
N           -4.39143039825695        0.11487396000772       -0.63305435922092
H           -6.41813400243564        0.13591133322185       -2.52947294571916
C           -5.58837174007522        0.90185141926473       -0.39087065743604
H           -5.65573400018314        1.21231675132252        0.65805101230428
C           -5.58959758565680        2.12828121991171       -1.30923071462872
C           -6.72274284870867       -0.06051331320792       -0.66113969739191
H           -4.80428755849988        2.80162481993177       -0.95906497086630
H           -5.31021232926429        1.82316128189925       -2.32283721148802
C           -6.92614996458259        2.88008368200372       -1.33981595970133
O           -7.02167827172120       -0.33762966397182       -1.94277126569250
H           -7.71207306766882        2.20413552415856       -1.69562162957434
C           -7.32035242669942        3.37919874557226        0.04839501944037
C           -6.82591351376906        4.05339776900873       -2.31354475169904
H           -6.52141727290353        3.97972724575068        0.47801439885544
H           -8.21474745166350        3.99451218089483       -0.01605964887091
H           -7.53023957962948        2.54815934567632        0.71645245428097
H           -6.55849023142142        3.71090306198313       -3.31109923477281
H           -7.77678346650038        4.57669563610451       -2.37651721546251
H           -6.06844551715666        4.75874370676547       -1.97857685413316
N           -7.25625331480882       -0.64591110601287        0.31810966252987
H           -7.56523713105737       -0.74384502131516        2.09710180365547
C           -8.27484033962552       -1.65793760829228        0.14818978724437
H           -9.04253735802280       -1.34717533985609       -0.57144337057766
C           -7.67834205228887       -2.99307503358045       -0.31128476980633
C           -8.93613615921775       -1.86760058284702        1.51892283561697
H           -6.88775882907565       -3.29821422981946        0.37167854917981
H           -8.45675112585550       -3.75075513315511       -0.31646492819963
H           -7.26403404892424       -2.88989138737940       -1.31084720623484
O           -8.31016104948038       -1.24327440194956        2.50884314198418
O           -9.91057307218630       -2.54918066143281        1.67825058958807
