42
 energy: -62.486133519113 gnorm: 0.000478381800 xtb: 6.7.1 (edcfbbe)
N           -2.02287570559582       -1.11363069752530        1.51996888209565
H           -1.09464435537224       -1.51280942238601        1.45058422159607
H           -2.57991819496848       -1.73861510465399        2.09744387948663
H           -2.94725271157632        0.51945725407735        1.91646071338771
C           -2.63807142977102       -0.99058954323756        0.19867530535540
H           -1.90101050193392       -0.51706136050079       -0.46289131573460
C           -3.09695213739742       -2.31132744094811       -0.41560415735015
C           -3.80165217675456       -0.02040897441519        0.33877695230052
H           -3.79413389899937       -2.81074557730436        0.25405860163987
H           -3.60651370233421       -2.11307033456196       -1.35217585707739
H           -2.24563777245313       -2.96496906033640       -0.59522859423582
O           -3.73244297586575        0.79806881827000        1.40286689125915
N           -4.72929869237690       -0.03784254224368       -0.50919541587328
H           -7.72626914595822        0.93614368775866       -2.05119587245302
C           -5.86318183023163        0.85734847943178       -0.38416861870838
H           -5.90235152783617        1.30230375310874        0.62056654698539
C           -5.75435461721636        1.97159419711308       -1.43104780396852
C           -7.07913665055461       -0.04143475342231       -0.53475890287919
H           -4.73141640070946        2.35229234539403       -1.39391111910143
H           -5.88362345752989        1.54305398099901       -2.43020818059635
C           -6.72587207451753        3.13953092940483       -1.19371813279603
O           -7.97934401020651        0.17827349361041       -1.50856709306847
H           -7.69258184770910        2.75290156917750       -0.84841966275943
C           -6.18578511146065        4.07573859747977       -0.11435361265492
C           -6.94742001655331        3.91506369138170       -2.49215159300907
H           -5.26079540784354        4.54136976911626       -0.44785839861875
H           -6.90610985668713        4.86088775976960        0.10329151690166
H           -5.98298468404299        3.53425838902274        0.80605138702628
H           -7.39516377943546        3.28680490355827       -3.26050306143360
H           -7.60822325540838        4.76128945881786       -2.32017199218592
H           -6.00004499984089        4.29319013033356       -2.87024505366188
N           -7.16694401619673       -0.99264812658978        0.28516989910293
H           -6.42722469983828       -1.84077836389885        1.62926035434624
C           -8.20267144131721       -1.99583150726753        0.26861409648914
H           -9.19901555866618       -1.54698281343953        0.36788321651538
C           -8.17204227096463       -2.86681871693670       -0.99205990782469
C           -7.94385819789837       -2.89942574315488        1.48811422126169
H           -7.16780500468189       -3.25795676864281       -1.14371284841323
H           -8.86399969805677       -3.69534658514862       -0.86925330368702
H           -8.45814912791192       -2.28009077407361       -1.86051848294519
O           -6.80153742126738       -2.62539632709268        2.10686776152144
O           -8.68788089346601       -3.77781648247057        1.82619968778590
