42
 energy: -62.486133510814 gnorm: 0.000480110157 xtb: 6.7.1 (edcfbbe)
N           -0.86381456583148       -0.59385986051104        0.52673143450012
H            0.08915030935386       -0.68211535378009        0.19585201905936
H           -1.06058797062771       -1.40100670715108        1.11222977387279
H           -2.02879844172960        0.74723863886047        1.31650030202632
C           -1.80624721539387       -0.54565089271619       -0.58932844913759
H           -1.41616442260963        0.18262745652865       -1.31257636477882
C           -2.03282403773441       -1.88049538426906       -1.29742752821048
C           -3.10312832853443        0.03604200099210       -0.04615481902739
H           -2.42992724112844       -2.61623437931752       -0.60032977526428
H           -2.74175717052581       -1.74862898289382       -2.10819735168701
H           -1.09562687784743       -2.25411457094751       -1.70506909197415
O           -2.96547460987706        0.80738876717135        1.04068557371615
N           -4.19090806281937       -0.19611124289989       -0.63666020781145
H           -5.03520088017709       -1.81928052242321       -0.84130958336273
C           -5.44549630129655        0.34697366783671       -0.15039133874837
H           -5.38998341224762        0.59541651151683        0.91786432313549
C           -5.71223618619926        1.63151980917729       -0.95709483687724
C           -6.48195785271142       -0.74796767795129       -0.33362377037777
H           -4.89177573584156        2.31508048052919       -0.72129133187985
H           -5.63601652333649        1.37498602384680       -2.01633648335748
C           -7.04031898999109        2.35019528313531       -0.71280859591563
O           -5.98583391228324       -1.95524067362298       -0.64758449139885
H           -7.84617975200206        1.72595324793834       -1.10367128797673
C           -7.28700447471452        2.61280222883031        0.76977584834173
C           -7.04025086540825        3.66805741363433       -1.48712513426637
H           -6.46281378653843        3.18053392201607        1.19744426739121
H           -8.20159609941841        3.18615038236875        0.90088012023238
H           -7.38745278098485        1.67868209792274        1.31550732080351
H           -6.85775810608787        3.49417849816622       -2.54501287641212
H           -8.00136475676232        4.16517717736495       -1.38367044617297
H           -6.26686082663351        4.33435237636947       -1.10974488484784
N           -7.71622325206713       -0.50260615711602       -0.24856093142947
H           -9.16451094008089        0.61237449170420        0.08173731313220
C           -8.69263765659633       -1.55383710619910       -0.44210551415577
H           -8.48884005263034       -2.13143018209987       -1.35244101440606
C           -8.74585878992768       -2.51822735793138        0.74975819399765
C          -10.06903634318165       -0.88945420521043       -0.56540817646499
H           -8.91586463053634       -1.96328371266544        1.67068780141041
H           -9.55872893160177       -3.22427719169371        0.60459432727820
H           -7.80681254364581       -3.05973586908213        0.82897334753403
O          -10.08970819569840        0.37193399222010       -0.14997154573026
O          -11.04176004628130       -1.46613229089083       -0.96639111222959
