42
 energy: -62.486133520987 gnorm: 0.000479059950 xtb: 6.7.1 (edcfbbe)
N           -2.82241963601604       -1.71338532593386        1.89124646559510
H           -1.90263055793206       -2.11221068353301        2.03314455725155
H           -3.49808871678791       -2.47274535637245        1.94745861309820
H           -4.03435127115389       -0.39151506147996        2.48227326821559
C           -2.91659320713877       -1.06509260652390        0.58481808356601
H           -2.03793762267046       -0.41779259458384        0.47011178995242
C           -2.99404906655545       -2.02977234911094       -0.59796594158952
C           -4.14327319380915       -0.16691970854783        0.62421266169159
H           -3.82620280583763       -2.71666186530700       -0.46001612189989
H           -3.15834596877269       -1.46721748485255       -1.51046801542681
H           -2.07308876414115       -2.60288757638292       -0.68383747797355
O           -4.60796308628454        0.10124567577434        1.85749691824521
N           -4.64722747947841        0.26587259305324       -0.44495817643727
H           -8.15018683554363        1.29477133936677       -1.30002525251583
C           -5.86701201347565        1.03902232705521       -0.39443418788614
H           -5.91663412162873        1.63086949000946        0.53372310822843
C           -5.91665071945241        1.97081337505438       -1.61551925316399
C           -7.03416006482913        0.06530715938305       -0.33621495251222
H           -4.88441149430669        2.15600321847996       -1.91611777957444
H           -6.39223414795590        1.45200076036773       -2.45274668793390
C           -6.60733689958391        3.31773064631330       -1.34915495045377
O           -8.21124703110603        0.42636855932024       -0.88117515413397
H           -7.51317244585834        3.16211086976694       -0.74723230084844
C           -5.68432502487122        4.24943439043236       -0.56622373411824
C           -7.01344576886224        3.97266568787569       -2.66868468691783
H           -4.80185909448207        4.48620427173247       -1.15625463680853
H           -6.19607381821914        5.17813387163462       -0.32424669650793
H           -5.35904616798761        3.78751644114051        0.36269114361296
H           -7.71524776839591        3.34966832033228       -3.22036285078824
H           -7.48469097352001        4.93560415490543       -2.48610743308331
H           -6.13733961936424        4.13360915885755       -3.29257612580212
N           -6.85347994213942       -1.02871468056975        0.25558870163782
H           -5.77381476334172       -1.93043712976477        1.24779525156338
C           -7.83468658061975       -2.07075100919558        0.41466862768805
H           -8.72481253085824       -1.70248042958278        0.94164480574994
C           -8.26746227140935       -2.70175931335350       -0.91122325106705
C           -7.16671256911761       -3.14688254032786        1.29259439319583
H           -7.38958641799155       -2.99669119342080       -1.48285248169427
H           -8.87060455593488       -3.58155223130160       -0.70526085428029
H           -8.84727380716845       -1.99085430293353       -1.49345278631021
O           -5.92272153881050       -2.83355427180395        1.64072439197175
O           -7.70779091937971       -4.16710047334138        1.61585429529515
