42
 energy: -62.486133522480 gnorm: 0.000478363687 xtb: 6.7.1 (edcfbbe)
N           -0.95947420049713       -1.17271850866294        0.29913090963712
H           -0.00831215275447       -1.19238955577402       -0.04817276908849
H           -1.23740691233902       -2.13459573186111        0.47600427972190
H           -2.02607771828120       -0.20884638820963        1.59079027202921
C           -1.86165073703942       -0.56979825785217       -0.68243146229808
H           -1.38639404809332        0.35443097759826       -1.03607842708422
C           -2.19519064662746       -1.45423819085513       -1.88088518830280
C           -3.11830882592031       -0.14746915859135        0.06121280276505
H           -2.63522014042810       -2.39139616023338       -1.54581458664173
H           -2.91715572844750       -0.94570383137321       -2.51057999178156
H           -1.29776007937452       -1.66967211338904       -2.45700369667378
O           -2.95740208280469        0.01745207015298        1.39527609446161
N           -4.19517844504918        0.00977146632476       -0.56421902806325
H           -5.11340668010006       -1.47834592198093        1.37162398929708
C           -5.38919826119050        0.50818838928589        0.08994547211562
H           -5.18267382386634        0.83565927816866        1.12135205519071
C           -5.93041051112609        1.67181443909829       -0.74451946150202
C           -6.34380621450039       -0.66296712628168        0.14789426539690
H           -5.11707088908796        2.38466029142103       -0.89470563619843
H           -6.20557920697718        1.26983383834777       -1.71911733934285
C           -7.12789715113409        2.38880637455153       -0.11146231973845
O           -5.96619187564508       -1.67519223046999        0.96176929992635
H           -7.82443808816795        1.63475913890318        0.26588770877382
C           -6.69255637238287        3.28146807559848        1.04929551870465
C           -7.84458735540412        3.22630010032337       -1.16908863068974
H           -6.00915559765138        4.05225996739236        0.69835160893167
H           -7.55625446087008        3.76894281702573        1.49562770634402
H           -6.19250603112157        2.70776866917623        1.82560757430476
H           -8.21599303782705        2.59859777529586       -1.97521731175755
H           -8.68890626453396        3.75186687330050       -0.72929496528395
H           -7.16535366871109        3.96385716595240       -1.59148414578631
N           -7.39363293991740       -0.68378355151402       -0.54048423681111
H           -8.37531491312360        0.02022532785160       -1.87573128533659
C           -8.30898396734517       -1.80016244763081       -0.53441991308332
H           -7.78398396781970       -2.76044437221557       -0.61165539513181
C           -9.18245409741466       -1.81368362209222        0.72507650670901
C           -9.22620244021299       -1.63223060021692       -1.75685957366979
H           -9.68463837036717       -0.85491482990253        0.83958374209227
H           -9.92957788493469       -2.59701501355163        0.63415128387869
H           -8.56728634531770       -1.99985724750044        1.60182259485729
O           -9.09336849773121       -0.45663034488349       -2.35736163144305
O           -9.99923063058269       -2.47663366255248       -2.11488162126577
