42
 energy: -62.486133513850 gnorm: 0.000479819487 xtb: 6.7.1 (edcfbbe)
N           -2.84422130843577       -1.63191254898849        1.99409864664867
H           -1.93203255032149       -2.04989177206883        2.13333683312746
H           -3.53190220638898       -2.38097269571510        2.03783906158142
H           -3.95628083573644       -0.17273758500783        2.58030230751003
C           -2.92205951131821       -0.97610591627876        0.68918960460216
H           -2.05713977629236       -0.30315036280692        0.61016594417063
C           -2.93391843786997       -1.92792716119537       -0.50480102826819
C           -4.16527485095807       -0.10211296816236        0.71918754407678
H           -3.72068252163450       -2.66842733864077       -0.38219681133988
H           -3.12833927466487       -1.36582349607404       -1.41144127722609
H           -1.97789305833708       -2.44000862280198       -0.59142653870275
O           -4.54255439492836        0.29219896367251        1.94931572130352
N           -4.76459286842426        0.18405692034151       -0.34860906883555
H           -8.25636397724323        1.37186785044166       -1.16256885147703
C           -5.97299424912366        0.97383538977172       -0.31900180244774
H           -6.08111736405299        1.50717326586595        0.63888258954759
C           -5.94665436450994        1.98016453594717       -1.48356450872162
C           -7.13888137589516        0.00593295003144       -0.40790581921154
H           -4.90259153064330        2.11228105959494       -1.77167451311937
H           -6.45501127066761        1.55014233842587       -2.35097072327114
C           -6.54423980159411        3.35211877339102       -1.13745915497594
O           -8.31779947542206        0.44798362610737       -0.88707444499870
H           -7.48112429452077        3.22074930947605       -0.57847937442298
C           -5.58299599128664        4.15125252378513       -0.25987042587438
C           -6.85326242708644        4.12796837284076       -2.41690963308883
H           -4.66485589021163        4.36030889363511       -0.80426321483970
H           -6.03186343766381        5.09719412922060        0.03431997512830
H           -5.32600472522931        3.60055473926060        0.64165767126923
H           -7.57715907996541        3.59874108474854       -3.03380257907338
H           -7.26032672274198        5.10782626550898       -2.17884816419167
H           -5.94554478081575        4.26689133433784       -2.99950718204673
N           -6.95141000689455       -1.15989780167810        0.02063060075198
H           -5.81358537573831       -2.19369220922819        0.77127876748550
C           -7.92031714557444       -2.22254173011137        0.06177999635503
H           -8.82215352588169       -1.92660659728432        0.61297642625553
C           -8.32655804457509       -2.71615751441766       -1.32960284291921
C           -7.23605552769130       -3.37490993839164        0.82442635956488
H           -7.43769965546191       -2.95219113998226       -1.91134782926264
H           -8.93432973572757       -3.61085954358248       -1.22762288385729
H           -8.89498785633822       -1.94745067182142       -1.84645603838828
O           -5.96550771576784       -3.11670520192879        1.11754641093817
O           -7.78790434875818       -4.40118568292417        1.10740603709449
