42
 energy: -62.486133515696 gnorm: 0.000475556153 xtb: 6.7.1 (edcfbbe)
N           -0.88130159846991       -0.12850973933520       -1.10794415418679
H           -0.17443717295042       -0.60337350243187       -1.65615966160726
H           -0.51983898870640       -0.02719454834551       -0.16349525863568
H           -2.07165911577156        1.39301485620545       -1.25561150018234
C           -2.12623778623956       -0.89380261033289       -1.08507991410552
H           -2.36035451736484       -1.15826136138322       -2.12510031500526
C           -2.08082938592011       -2.16813863774229       -0.24504596351230
C           -3.23000776220339        0.05679161071561       -0.63002870055247
H           -1.87822616610034       -1.92571302656246        0.79632021900518
H           -3.03741582046732       -2.67610101297957       -0.30353832487579
H           -1.30194203303428       -2.83402255060689       -0.61149786206999
O           -2.97846583546721        1.34961299444552       -0.89024853893653
N           -4.24582382610590       -0.43106772490297       -0.07916971783937
H           -5.35020588095309       -1.91614968838324        1.22675937949217
C           -5.43554995396323        0.26542032980409        0.36713367285377
H           -5.30925387432624        0.46422960462873        1.44188874492671
C           -5.80389367045022        1.56188739738583       -0.35843592409815
C           -6.49807715799263       -0.80833672564293        0.21234873202366
H           -4.94992382366282        2.23790872396958       -0.32970388120760
H           -6.00120593005428        1.31141452023926       -1.40194465578087
C           -7.02235568491001        2.27350059132334        0.24266526888371
O           -6.26321157268025       -1.93984568023613        0.90583257509233
H           -7.80444352549856        1.53340370821494        0.43395300541622
C           -6.66994544913401        2.96572370039186        1.55807464122595
C           -7.55852911212595        3.29985345155708       -0.75380145217570
H           -5.89224438191109        3.70994715620583        1.39831691506404
H           -7.54432716590398        3.46764624325577        1.96605575006265
H           -6.31697893842668        2.25392740346401        2.30052301433612
H           -7.86988881253932        2.81810138640207       -1.67743553828811
H           -8.41583119137042        3.82318070655169       -0.33690696046621
H           -6.79097858558620        4.03399691338737       -0.98987336449305
N           -7.44503112116621       -0.67107137490689       -0.60258760228614
H           -8.24092571393174        0.27532921666710       -1.90763164558171
C           -8.41782804511682       -1.71023364458686       -0.84383904135351
H           -7.94042767138841       -2.68690522234676       -0.99433588669595
C           -9.42787228522791       -1.82642101741886        0.30291044044631
C           -9.17654259278702       -1.32000438713434       -2.12222731041761
H           -9.88574154988335       -0.85785038361609        0.49499904915740
H          -10.20226989501285       -2.53702274926023        0.02841109947621
H           -8.92532329792384       -2.16743850975906        1.20450385514195
O           -8.91918121985608       -0.08333571336085       -2.52960559097670
O           -9.94166314993650       -2.05611654679896       -2.68051253463403
