42
 energy: -62.486133512418 gnorm: 0.000479627502 xtb: 6.7.1 (edcfbbe)
N           -0.94607194505652       -0.43892100697249        0.55862336178750
H           -0.01365354476705       -0.64306070687822        0.22058677894314
H           -1.10676157743952       -1.01621003299793        1.37967192966885
H           -2.08085928735883        1.04349849452606        1.01509253663718
C           -1.95137324144976       -0.73695751795235       -0.46013695640910
H           -1.59614662032469       -0.30497097625669       -1.40499668829624
C           -2.23053215610456       -2.22567817407626       -0.65844404334562
C           -3.21338358563879        0.02332296566709       -0.07757803280632
H           -2.58463126251556       -2.66614441984265        0.27128366708205
H           -2.99880956178448       -2.35927059375228       -1.41213342550060
H           -1.32582892355399       -2.74186627877701       -0.97375166184524
O           -3.02669556244610        1.05036692457045        0.76285165584895
N           -4.32480803896867       -0.32813367353266       -0.55297388803822
H           -5.56473550934673       -0.94140916435140       -2.11224999218075
C           -5.53618288337550        0.40123150773831       -0.23245809054919
H           -5.61068606998133        0.59062484078631        0.84303957739008
C           -5.59354987013806        1.73780036370436       -0.99449756325685
C           -6.67302662256041       -0.48843899957848       -0.67443325023533
H           -4.76203547433535        2.35546930732848       -0.65050579173838
H           -5.44249030423632        1.53313386290044       -2.05875998914548
C           -6.90978516478994        2.50008826534496       -0.81191742004392
O           -6.49350800068336       -1.08329263035462       -1.86397642507403
H           -7.73731276928500        1.84825164422019       -1.11184272391856
C           -7.12465638037537        2.91929839068178        0.63963805068943
C           -6.90984382615182        3.73059703443330       -1.71782303837731
H           -6.28836378897031        3.52254188021039        0.98706406532407
H           -8.03435827555032        3.50805386602868        0.72725732958162
H           -7.22258897473583        2.05223338795496        1.28642259693224
H           -6.78613122038665        3.44541902974976       -2.76027234225585
H           -7.84804777292422        4.27110591068368       -1.62135970900070
H           -6.09760607775838        4.40156308624518       -1.44558618242555
N           -7.66705434368185       -0.67311160350068        0.07705501059705
H           -8.76447202951000        0.00790224974968        1.34730029300315
C           -8.77268732143449       -1.51548800925607       -0.32640728555857
H           -8.98443547038774       -1.43316937915802       -1.39992993038169
C           -8.50356079479034       -2.98500404769566        0.01375596123186
C          -10.00995756338860       -1.05240934633383        0.45674162532106
H           -8.24918860234649       -3.08081241673060        1.06730064384894
H           -9.39513326440171       -3.57016791853517       -0.19322757763004
H           -7.67684973834841       -3.35763372383171       -0.58590490541350
O           -9.73351146533158       -0.16622227656861        1.40611957780272
O          -11.11487637322390       -1.46615596075713        0.24029724603055
