42
 energy: -62.486133512320 gnorm: 0.000479564274 xtb: 6.7.1 (edcfbbe)
N           -0.78316358879177       -0.27106041771791        0.22213660855181
H            0.12455245233321       -0.27161549058109       -0.22592813682381
H           -0.78074663333775       -1.01035775019650        0.91941201743846
H           -2.00464260253824        0.96882489433491        1.03137043449269
C           -1.85168870524702       -0.50127374522425       -0.74873730581013
H           -1.63656312340135        0.11611382303678       -1.62968850099803
C           -2.01546394418425       -1.95612314297210       -1.18610364083736
C           -3.13695927086076        0.04556479596111       -0.14256669483234
H           -2.19703799397233       -2.59214453341368       -0.32085052110792
H           -2.85992338611736       -2.03685246401072       -1.86259780710216
H           -1.11749103467753       -2.30363645973733       -1.69259228630784
O           -2.96800946365600        0.91558752380602        0.86339572577579
N           -4.24788446328517       -0.30769379990000       -0.61890870771357
H           -5.05795956424466       -2.10125648055718       -0.02265409861708
C           -5.48809292089990        0.20546555602425       -0.06777515016847
H           -5.37108504462972        0.41548471364934        1.00758582011709
C           -5.91531809763124        1.49341893604238       -0.78269299390947
C           -6.50362840723707       -0.90872107156730       -0.20899002021539
H           -5.02483484209419        2.10596356149314       -0.93971028112333
H           -6.31313790558861        1.21929341313445       -1.76022922719434
C           -6.95268703986878        2.30649491333151        0.00103397876316
O           -6.02747641595041       -2.14948327470572        0.01129364283529
H           -7.68358914450179        1.61310448755525        0.42646304212091
C           -6.29289076921299        3.08644963927098        1.13679714838632
C           -7.67691026835944        3.27087912944293       -0.93641496468068
H           -5.60195581219412        3.82544708033070        0.73580962469942
H           -7.04443911388926        3.60545893723791        1.72707897376469
H           -5.73678886380468        2.42796359082559        1.79931151012788
H           -8.19896447235232        2.73334274841175       -1.72401806281136
H           -8.40605589021628        3.85941993644606       -0.38482851452719
H           -6.96615552146690        3.95349594363199       -1.39803132520397
N           -7.68641877248649       -0.66396966930570       -0.56154110866137
H           -8.85731132199429        0.45275302952028       -1.37348104268634
C           -8.66644742482438       -1.71137922979147       -0.72970498601458
H           -8.23808910259048       -2.60421139785441       -1.20328035568997
C           -9.29139113967741       -2.11405602544851        0.61038403297979
C           -9.77449044544443       -1.14970182630298       -1.63325133997644
H           -9.68327876440652       -1.23411713791685        1.11689243057164
H          -10.10310709937114       -2.81379890513035        0.43286437463227
H           -8.54047978349274       -2.58220829335911        1.24205799517669
O           -9.67482790154721        0.15775715135755       -1.84087578341559
O          -10.65335765434211       -1.82664854504537       -2.08949947910736
