42
 energy: -62.486133518734 gnorm: 0.000479244367 xtb: 6.7.1 (edcfbbe)
N           -0.75698629078654       -0.03239464044896       -0.48515194403462
H            0.04556452499142       -0.29600831343523       -1.04378241765491
H           -0.57687368195309       -0.33133034096400        0.46940752726492
H           -1.90610561865017        1.50185685686791       -0.21584501865013
C           -1.97512804509129       -0.66809928733505       -0.98408697824428
H           -2.00086839850820       -0.51087304307626       -2.07041385758659
C           -2.08399903142134       -2.16332102500607       -0.69401716288009
C           -3.15204741149448        0.11300967399676       -0.41217083494855
H           -2.06485111943176       -2.34143209482575        0.37945889630761
H           -3.01792230997193       -2.54376498074632       -1.09356785230099
H           -1.25589257361251       -2.69830695623677       -1.15447485119930
O           -2.86954230322597        1.38425041335985       -0.08861638665177
N           -4.26362655682897       -0.45995102248841       -0.29277147902654
H           -5.21119844200169       -2.09671588246531        0.60652578408190
C           -5.47450537781513        0.17830334237105        0.19214426765404
H           -5.36374624977226        0.37267865434677        1.26935618307020
C           -5.84095280826938        1.48177171541794       -0.52558633653497
C           -6.53132941966143       -0.89554549765911        0.01385736387201
H           -4.95549843373710        2.11572897240665       -0.57030782061822
H           -6.13048138091578        1.22594096373742       -1.54599499260337
C           -6.97225521960188        2.25998693772444        0.15743437506223
O           -6.17196706573487       -2.11166068998555        0.46755585109729
H           -7.75825522930635        1.55555712202620        0.44359735921886
C           -6.47329516584489        2.97676735667521        1.41066264591589
C           -7.55900846651879        3.27823428491453       -0.81873975285767
H           -5.69438888235100        3.69158149870330        1.15296584840041
H           -7.28899682291647        3.51551011724565        1.88741285676449
H           -6.06634157903287        2.27537646823802        2.13494344768275
H           -7.96525971875192        2.78626924823923       -1.69901538683988
H           -8.35903493377357        3.84157853247108       -0.34435036051238
H           -6.79112795423630        3.97943613109787       -1.13933209928230
N           -7.60573749153813       -0.66488364835542       -0.59780760373240
H           -8.60325336811037        0.41725567013339       -1.64286156219377
C           -8.58891927034555       -1.69661953586320       -0.83270906111170
H           -8.12510100464577       -2.62617526166301       -1.18734775978183
C           -9.40606241831594       -2.00499553832498        0.42654198977834
C           -9.54180151507128       -1.16945336036095       -1.91608897366183
H           -9.84654803228266       -1.09006281941614        0.81809383378698
H          -10.19990957520510       -2.70323750843733        0.17700552134314
H           -8.76258932646714       -2.44308154304358        1.18531781041078
O           -9.36247182269891        0.11554717738647       -2.19695617568247
O          -10.37787547106993       -1.85075401466171       -2.44134987023302
