42
 energy: -62.486133065417 gnorm: 0.000562338946 xtb: 6.7.1 (edcfbbe)
N           -1.07621378373981       -0.41693461497642       -1.54560842008927
H           -0.28795849454566       -1.01680183626652       -1.75543434336375
H           -0.71381768967315        0.41731598846159       -1.09245960963350
H           -2.62015080592456        0.30955499567242       -2.38940678736594
C           -2.02840089983837       -1.08677976464711       -0.66187192966642
H           -2.18945103564082       -2.09532555161439       -1.06580102678526
C           -1.58422640759452       -1.19466024921530        0.79443344855196
C           -3.35669862582108       -0.33984555178971       -0.78812473588266
H           -1.38215519362869       -0.20409220061828        1.19696866974680
H           -2.37635186838022       -1.64582153927046        1.38262135559139
H           -0.68405149474440       -1.80057432872148        0.87367307639293
O           -3.48038183442441        0.36631204869340       -1.92275257048290
N           -4.20311851006898       -0.46987908502850        0.13405312511709
H           -5.12086951994258       -1.90551646992883       -1.04979551083352
C           -5.51775616339854        0.13010026357169        0.19082540522222
H           -5.74904025317831        0.17964248251017        1.26111859448099
C           -5.58346041007811        1.55239842704278       -0.40041051911734
C           -6.54097806350927       -0.79869622987044       -0.44078420562185
H           -4.75063247655386        2.10942136370372        0.03824841230315
H           -5.41409496062694        1.49360279228633       -1.47627230707086
C           -6.88110214978530        2.32693786014634       -0.15761607420405
O           -6.08646918166527       -1.86565128855408       -1.12189279127577
H           -7.68955697690183        1.82077044490090       -0.69023916224307
C           -7.24432967664768        2.41686629489002        1.32201412530003
C           -6.73207261295987        3.73181753731684       -0.74201946374021
H           -6.42366135994126        2.85095881356293        1.89004474914899
H           -8.12034853368426        3.04785956336609        1.45107420722216
H           -7.47146564911057        1.43634688878836        1.73130030078567
H           -6.47025422186318        3.68595703635466       -1.79651105030684
H           -7.66475628275110        4.28177913718728       -0.64525604527071
H           -5.95312720443777        4.28293199474821       -0.21846772561856
N           -7.76811302426973       -0.54203106522301       -0.30921139096445
H           -9.15277203402681        0.53000216979613        0.27060266230587
C           -8.78212530271994       -1.39070587793985       -0.89732607094912
H           -8.55422992383555       -1.63186622236997       -1.94293169195771
C           -8.95831549401608       -2.69888110415880       -0.11635191726039
C          -10.11163595763295       -0.62602096583685       -0.84045296312597
H           -9.14747757512045       -2.48223273302649        0.93330041572721
H           -9.80198935266219       -3.24845026664982       -0.52429218276064
H           -8.05925126544113       -3.30403479974620       -0.19763127035627
O          -10.07809752312504        0.44267616196635       -0.05356235005045
O          -11.09523147412620       -0.98047629195276       -1.42885932420278
