42
 energy: -62.486133514956 gnorm: 0.000479896549 xtb: 6.7.1 (edcfbbe)
N           -0.71933972758801       -0.10009971458801       -0.08995540177004
H            0.14664427982242       -0.32079825377919       -0.56639176312913
H           -0.68241714769557       -0.53228613237488        0.82945425664909
H           -1.85672500545213        1.43997162811675        0.22616581115179
C           -1.87182591556559       -0.60812726389902       -0.83229613340647
H           -1.74479728667571       -0.29590295692616       -1.87768244619512
C           -2.04860505623852       -2.12455055177009       -0.78159986542727
C           -3.09409777372146        0.13439431048838       -0.30811334616781
H           -2.23889210086057       -2.44891883566544        0.23939856492177
H           -2.88665740953441       -2.42112815124962       -1.40359510452048
H           -1.14984955872602       -2.61801953755934       -1.14655468540011
O           -2.83073797692840        1.34251388558356        0.20938950650791
N           -4.22647971526053       -0.40614972787923       -0.38446645809189
H           -5.09066622992416       -1.99035029948082       -0.36543867105757
C           -5.46713208766337        0.23007450301302        0.01976638151490
H           -5.43734865344990        0.46303529227751        1.09245711906802
C           -5.66943434973693        1.53317555504837       -0.77476669542106
C           -6.53797067560111       -0.82878413752259       -0.20900280592620
H           -4.83690313220341        2.18812811411407       -0.51057481020400
H           -5.57883413330534        1.28769346814224       -1.83590952581665
C           -6.97425851169524        2.30334117283019       -0.55740731138604
O           -6.06708168848992       -2.07930923313336       -0.31454388003414
H           -7.78423713353909        1.75319420677973       -1.03890241738882
C           -7.30212936606789        2.48148712884102        0.92170781386879
C           -6.85916687712650        3.66779248107180       -1.23711584284420
H           -6.47577814393486        2.96540380708881        1.43898295779556
H           -8.18685547310434        3.10349074195770        1.03557222927046
H           -7.49728238857264        1.52143876824056        1.39191456590328
H           -6.60974850422572        3.55400989039686       -2.28948270039287
H           -7.80174717214707        4.20469007013651       -1.16612389990991
H           -6.08506238331662        4.26818525673196       -0.76310484643288
N           -7.75789584220650       -0.53159212791689       -0.33194612465360
H           -9.21715516963503        0.62399070497900       -0.19593708625456
C           -8.74237677334719       -1.56812933436344       -0.56669153055721
H           -8.44971078274018       -2.21844319849509       -1.39998863365111
C           -8.98018713263822       -2.43742084604122        0.67550051050861
C          -10.06939147240074       -0.87948961460073       -0.90338155604140
H           -9.24941448762639       -1.81012960206094        1.52346885342564
H           -9.79010368811862       -3.13381202733611        0.47717390157812
H           -8.07762386376960       -2.99276930888341        0.91580192650046
O          -10.11232479345073        0.39583784560254       -0.53306143301153
O          -10.99458995654749       -1.44766385881949       -1.41378441776477
