42
 energy: -62.486133510780 gnorm: 0.000480267023 xtb: 6.7.1 (edcfbbe)
N           -0.89924183295558       -0.42493291327744        0.18215801036893
H           -0.06504245879882       -0.86742442544718       -0.18403062613576
H           -0.93369640275044       -0.61710816099458        1.17986259938511
H           -1.83167654633773        1.25056016316648        0.13994892410965
C           -2.09941415974700       -0.95543059418886       -0.46318854084328
H           -1.91360690608941       -0.94847374714427       -1.54579048446288
C           -2.48961693758331       -2.36589703994344       -0.02824617009417
C           -3.22425551725949        0.04194053576548       -0.20781297207674
H           -2.64210983261327       -2.39541484405796        1.04867834830177
H           -3.41934588852646       -2.64985432291610       -0.50942767945055
H           -1.71040797439627       -3.07636089419709       -0.29706602485002
O           -2.80859691509253        1.28712345666638        0.07976124781074
N           -4.41393525659442       -0.35404017737579       -0.27604198229913
H           -5.83045879850436       -0.42505604638304       -2.29839983555891
C           -5.57556808887855        0.49505984917716       -0.11331082362286
H           -5.73572468010201        0.67324260849367        0.95497994502731
C           -5.50566487428399        1.84059768788024       -0.85786182777957
C           -6.73281645885236       -0.33104883839501       -0.63114288431830
H           -4.76428011365500        2.47054601998386       -0.36619556395867
H           -5.15462076730675        1.66203478469141       -1.88003083486271
C           -6.84686619808295        2.58131038552274       -0.91237210664315
O           -6.67883231549634       -0.69634911419145       -1.92540803293729
H           -7.58555024490912        1.94615162613998       -1.41463641268493
C           -7.36663825899482        2.91012378418561        0.48442030470401
C           -6.68042081330038        3.86300906044201       -1.72764458249974
H           -6.61801106928689        3.46412417075454        1.04707356578035
H           -8.26411933201861        3.52022950507731        0.41447127268989
H           -7.61776488173876        2.00381143015813        1.02856105056604
H           -6.32775053911041        3.64206954722639       -2.73294550830946
H           -7.62911684528388        4.38804807160273       -1.80719889871906
H           -5.96116490050445        4.52416501973975       -1.24887246300287
N           -7.64510660808628       -0.69178575343866        0.15777311366315
H           -8.53765039872823       -0.48998072625834        1.72290254958023
C           -8.75431380759501       -1.50997476851453       -0.28286642818963
H           -9.13571349472702       -1.19272496435261       -1.26130190351548
C           -8.36268028601741       -2.98988156699100       -0.35980520331628
C           -9.87214443343900       -1.36013964892853        0.75898090593937
H           -7.94892667906235       -3.31353153980317        0.59301359022244
H           -9.24383404641052       -3.58317656796420       -0.58722744442569
H           -7.61659182137087       -3.13427675334340       -1.13692735059720
O           -9.47878944327700       -0.74511527286507        1.86849014701298
O          -10.98412442811949       -1.77819485935572        0.59361204013975
