42
 energy: -62.486133535366 gnorm: 0.000472340389 xtb: 6.7.1 (edcfbbe)
N           -1.04871676799499       -1.36591673409768        0.41601474256989
H           -0.05868546661993       -1.31000812859399        0.21112508314535
H           -1.32052719782441       -2.34246045038338        0.33664077346546
H           -2.30487998657273       -0.74765410675629        1.73134789297668
C           -1.82460459857266       -0.55715117902335       -0.52485036484383
H           -1.31468759677356        0.40934346526727       -0.62629188058579
C           -2.00552941256223       -1.17900081736553       -1.90787637252951
C           -3.16806446662388       -0.27033002218128        0.12568935299050
H           -2.47838183119199       -2.15571526939260       -1.82187844322839
H           -2.64704040204155       -0.54089364429995       -2.50607418113199
H           -1.04358386325694       -1.29404722887895       -2.40282081624913
O           -3.20351474044181       -0.46337775828509        1.46775441786407
N           -4.14037756265944        0.10187193204908       -0.57424921112742
H           -5.00155491554484       -1.71840731326786        0.86203358600752
C           -5.40976374860758        0.47704265938985        0.01655848551896
H           -5.29433370954349        0.70215228547349        1.08979725442618
C           -5.94372456300468        1.70128752085719       -0.73031178412893
C           -6.33087708769199       -0.71937701867544       -0.08791599397238
H           -5.11687239790935        2.40222200958674       -0.85875292438444
H           -6.25780781930565        1.37269241745481       -1.72050684014149
C           -7.10305533063371        2.40406493732106       -0.01435778953462
O           -5.86977532327669       -1.86385399875580        0.46154693519022
H           -7.79476945425562        1.64185367843956        0.35543453667535
C           -6.60432736240022        3.23106583416069        1.16951345650435
C           -7.84884637627680        3.30627253197275       -0.99588778382092
H           -5.93207984534471        4.01523373547867        0.82669886501642
H           -7.44115451014553        3.69931953430741        1.68258759506819
H           -6.07169082397672        2.61451690853786        1.88939311842609
H           -8.26130412036559        2.72977771007754       -1.82002198104358
H           -8.66737695597918        3.81741632918677       -0.49469003920023
H           -7.17581588391807        4.05748966221056       -1.40395842984777
N           -7.46389076932946       -0.61701155510316       -0.62166343733139
H           -8.58990739441147        0.30797926109714       -1.68519261517580
C           -8.37387213278405       -1.73321422859999       -0.73061098587397
H           -7.86134541580290       -2.64981774565771       -1.04830222040239
C           -9.10017149227250       -2.00566288393782        0.59119673883672
C           -9.42060542389324       -1.35636393791478       -1.79162575270299
H           -9.58475220639737       -1.09715354265800        0.94350458987067
H           -9.85353362529216       -2.77227491328273        0.43398216106967
H           -8.39036969088828       -2.34395055989456        1.34189609119220
O           -9.35460300830385       -0.08624741293138       -2.16969106156019
O          -10.22941598232610       -2.13373781959700       -2.21624973390554
