42
 energy: -62.486131005742 gnorm: 0.000513983602 xtb: 6.7.1 (edcfbbe)
N           -0.79811563678974       -0.32576810773209        0.31715768829602
H            0.13052582970553       -0.43211597845443       -0.07231681039642
H           -0.89943047172770       -1.01440700984838        1.05774376872630
H           -1.98214191586193        1.07397513789338        0.95286599296645
C           -1.82372856095930       -0.53634529968418       -0.70277278544232
H           -1.53517123491887        0.05614520104653       -1.58089891341764
C           -2.01945145006446       -1.99197268822434       -1.12387751719943
C           -3.10862157895999        0.07822567334927       -0.16893719637983
H           -2.33012462564478       -2.59338088778081       -0.27160624954491
H           -2.78403079372210       -2.05207973026929       -1.89115064744290
H           -1.09004273510048       -2.39716362459235       -1.51905866773338
O           -2.93845341913107        1.03918190701992        0.74945210682615
N           -4.22285469455357       -0.30555360409960       -0.61282176777366
H           -5.07122790294420       -1.94227250033508       -0.61252820269781
C           -5.46303172059590        0.27556428608746       -0.12986008592605
H           -5.38690530436308        0.52719748735452        0.93720530857467
C           -5.71210557735486        1.56606591975906       -0.93043562582423
C           -6.51893227357888       -0.80412320244770       -0.28849451469985
H           -4.86319712805653        2.22142279242731       -0.71729779254892
H           -5.67651060694001        1.30835969493170       -1.99145932092012
C           -7.00634037247306        2.33202825855056       -0.64739423993740
O           -6.03228411241772       -2.04454507238460       -0.45412197039146
H           -7.83914988205905        1.76635231707732       -1.06886513547330
C           -7.24472443823345        2.53194975009714        0.84611510807879
C           -6.94523672760714        3.68512216096453       -1.35578699441718
H           -6.38903506447869        3.02291576712482        1.30570839191588
H           -8.12178877856484        3.15510036010692        1.00413848818267
H           -7.40988256107051        1.57876876538318        1.34091326308410
H           -6.76247640492039        3.55505234931560       -2.41985656800855
H           -7.88546957423832        4.21677267179914       -1.23336134021142
H           -6.14744426238210        4.29883666473319       -0.94190703690314
N           -7.75010762929760       -0.53121751071996       -0.31606903622448
H           -9.20528764390637        0.61173159934801       -0.12970791680959
C           -8.73150434644840       -1.58274782761169       -0.48428337390407
H           -8.48127023164536       -2.23599028405459       -1.32927446778648
C           -8.87749513727191       -2.44379582703557        0.77723608906968
C          -10.08618602570289       -0.91460835325342       -0.74588745655150
H           -9.09548654033882       -1.81164461001411        1.63629244622366
H           -9.69207232643449       -3.14919469245620        0.63897221453707
H           -7.95525008687603       -2.98853328673335        0.96112144643727
O          -10.11743900925240        0.36941031800765       -0.40703694505252
O          -11.03670830381760       -1.50474485404820       -1.17891872445878
