42
 energy: -62.486135560924 gnorm: 0.000374300591 xtb: 6.7.1 (edcfbbe)
N           -1.06305637109759       -0.60714646933832        0.71526234058262
H           -0.12251822491419       -0.84746412596908        0.42684114127534
H           -1.31578942167644       -1.22691358001212        1.48027830222978
H           -2.14487749195285        0.92447864995109        1.18255965910119
C           -2.00834507738899       -0.77311571832154       -0.38755270316419
H           -1.56961610448501       -0.28397427544254       -1.26743951690288
C           -2.33977076667387       -2.22452425514158       -0.72875023973156
C           -3.25773643285978        0.01525501114688       -0.02315488798105
H           -2.77821014144120       -2.72025486982377        0.13473224226818
H           -3.05904820983445       -2.25611615652572       -1.53976093122394
H           -1.43980235788211       -2.75900514348228       -1.02663092280228
O           -3.07215883782439        0.99121458881336        0.87751448248162
N           -4.35773013392272       -0.26654555093563       -0.56560835985801
H           -5.69229933450510       -0.74976659859280       -2.20971475800267
C           -5.55392452654755        0.49101714157995       -0.25118150445543
H           -5.62312806168860        0.70083136609516        0.82112708274173
C           -5.57652727274212        1.81287826652409       -1.03832279782062
C           -6.70239229969776       -0.39469869813862       -0.66871913919666
H           -4.76135952645986        2.43662919578437       -0.66643946179678
H           -5.37435302875208        1.59311912832534       -2.09120498796424
C           -6.90035800661691        2.57637404091002       -0.93210826974584
O           -6.59403845174323       -0.92416074049510       -1.89826935059463
H           -7.70804076430294        1.92889112754437       -1.29127963827767
C           -7.20779762702005        2.97918412243750        0.50732235933043
C           -6.83891216386071        3.81537367299580       -1.82431787921353
H           -6.38120262976140        3.54934775576130        0.92622523048849
H           -8.10246785085754        3.59620028740373        0.53918663643145
H           -7.38051645311956        2.10398720531387        1.12700449851870
H           -6.64161326574969        3.54045356697831       -2.85826122083716
H           -7.78193237995258        4.35504475990616       -1.78906404603678
H           -6.04843916529953        4.48375717171080       -1.48907511018594
N           -7.63597990575444       -0.64954894065383        0.13738744202377
H           -8.58832278409815       -0.21335470056513        1.61085745570359
C           -8.73419336356557       -1.51936655831317       -0.22834304811888
H           -9.09420599385090       -1.31749291133790       -1.24486187196722
C           -8.33914095415562       -2.99680645557849       -0.12919834542753
C           -9.87768065208101       -1.25251861270178        0.76124790883049
H           -7.93549396405712       -3.20664894106454        0.85928480413549
H           -9.21737625704069       -3.61439370543473       -0.29462367927156
H           -7.58523798081364       -3.22909961467280       -0.87698103307060
O           -9.52680371801732       -0.46894426437581        1.77419606783353
O          -10.97379330482918       -1.72420201017596        0.63877105131119
