42
 energy: -62.486132342611 gnorm: 0.000611614615 xtb: 6.7.1 (edcfbbe)
N           -1.06060541799079       -0.39429352292064       -1.58673856567337
H           -0.30923856203364       -1.01677186892244       -1.85637393082086
H           -0.64682584183309        0.39036637034905       -1.09076740996042
H           -2.55938426190699        0.45992589354829       -2.34784912200062
C           -2.02826541676831       -1.07253321488214       -0.72665295219808
H           -2.21887020388576       -2.06022559386122       -1.16628903005604
C           -1.57850327170049       -1.24388585355509        0.72255386794257
C           -3.33819532802806       -0.28528878542716       -0.81466318691275
H           -1.35285178862366       -0.27324104814182        1.15970540570615
H           -2.37558905172359       -1.69970907085078        1.29995441081369
H           -0.69060135392130       -1.87070470965457        0.77430439558467
O           -3.42133174392789        0.51872081313044       -1.88188864364697
N           -4.19997705383792       -0.47257808539488        0.08374492282224
H           -5.11841490069547       -2.02441836249494       -0.75587003287011
C           -5.51060110079965        0.13756381732099        0.17427548928391
H           -5.70539517235959        0.19774607065061        1.25254163581064
C           -5.60092877704698        1.55194903838112       -0.42572998287744
C           -6.53838450101182       -0.82313308760129       -0.40206610191459
H           -4.75900077413166        2.11578670560115       -0.01381416648075
H           -5.45978421779504        1.48668211647303       -1.50495098207205
C           -6.89310333434417        2.32836545960170       -0.15682465917149
O           -6.07640883185606       -1.97979738928072       -0.91138807696120
H           -7.70014611181584        1.85659785105061       -0.72128031899246
C           -7.27211196245798        2.35454004477660        1.32122537397410
C           -6.72391335207956        3.75644618349230       -0.67584390154144
H           -6.45059828362748        2.74484843352837        1.91916497810116
H           -8.13720275272865        2.99627778731620        1.47058022844397
H           -7.52360769911476        1.35973402332293        1.67889723772111
H           -6.44179359602808        3.75390211760701       -1.72602015399087
H           -7.65483435586400        4.30840384534340       -0.57319586968181
H           -5.95165874285373        4.27865285316497       -0.11410551821722
N           -7.76328767621978       -0.52880499165451       -0.36545692817814
H           -9.16906815425025        0.59850977835450        0.06924871125893
C           -8.76809913609530       -1.42562730365647       -0.89570828236471
H           -8.49989937543213       -1.79260489306160       -1.89388276327480
C           -9.00737008337415       -2.62907906947144        0.02517765479158
C          -10.08395686332719       -0.64173596249854       -0.98707247220657
H           -9.24235380193217       -2.28650900622325        1.03121476815994
H           -9.84115263882661       -3.21187830224534       -0.35616498595979
H           -8.11743472411427       -3.25184403333445        0.06061076443789
O          -10.07669312048194        0.49155909337288       -0.29521768265287
O          -11.03874793204205       -1.03393991554436       -1.59844901585582
