42
 energy: -62.486133514001 gnorm: 0.000479949158 xtb: 6.7.1 (edcfbbe)
N           -1.88815992443203       -1.52936196282603        1.24370538043739
H           -1.37275068771454       -0.75244733515518        1.64414964965932
H           -1.24779213647041       -2.30676077260496        1.13520574776315
H           -3.67987036208894       -1.22461007903626        1.92239215049425
C           -2.47586341567530       -1.15606687657457       -0.04117536303618
H           -1.82208154813292       -0.53205330730968       -0.66637304242485
C           -2.86205752460340       -2.41434841664917       -0.82066710404792
C           -3.74609304507138       -0.37873050349156        0.25663090318754
H           -3.52297515493464       -3.03701437662831       -0.22147770536160
H           -3.37530036498488       -2.13352672180701       -1.73541080819106
H           -1.97470983544913       -2.98928659410660       -1.07715599082771
O           -4.30024185532014       -0.63309604564189        1.44768791258163
N           -4.20567075430780        0.40836184440590       -0.61280622041295
H           -6.02723681443418        0.12769012947691       -2.50685102382085
C           -5.47496329802255        1.07960111531394       -0.37439213856079
H           -5.57691590242068        1.36012059537311        0.67981629334393
C           -5.56354531651112        2.31087693956872       -1.28086794131781
C           -6.53117013868402        0.04235500559641       -0.67160545258136
H           -4.86467057478806        3.05748150726618       -0.89952760580689
H           -5.21681280576344        2.03977914651622       -2.28242779032948
C           -6.96760493127705        2.92061872378105       -1.36701261210219
O           -6.65695229010393       -0.35367096709501       -1.95443962139052
H           -7.65994922809359        2.16910312809470       -1.76371676915080
C           -7.47516689437620        3.35847441278393        0.00469369566840
C           -6.94689951542594        4.10908263926526       -2.32708414206510
H           -6.77119802771415        4.04601316506500        0.46875134580217
H           -8.43245411008626        3.86473383413338       -0.09555483653494
H           -7.61281528379557        2.50224468024579        0.65947417139069
H           -6.60092925751859        3.80700489955368       -3.31340291587882
H           -7.94296307045943        4.53249742929349       -2.42992725047753
H           -6.28189057602341        4.88466827614742       -1.95323905218823
N           -7.16514899706894       -0.47317750731878        0.28461864211084
H           -7.55211124293568       -0.54630690533064        2.05261239265782
C           -8.10989050868502       -1.55097676853108        0.10180008480905
H           -8.82525750515059       -1.33545502432644       -0.70127235333515
C           -7.40822341834273       -2.88047122938300       -0.20011208600324
C           -8.87195417078800       -1.70465427520275        1.42712716816606
H           -6.66348171503954       -3.08512906362009        0.56689044826533
H           -8.14300066777249       -3.68070789460998       -0.20654700398394
H           -6.91749638765782       -2.83069574397874       -1.16883817943881
O           -8.31937633399842       -1.03775789600950        2.43188811926737
O           -9.85254565348700       -2.38642700998170        1.54337601035200
