42
 energy: -62.486133523576 gnorm: 0.000478473845 xtb: 6.7.1 (edcfbbe)
N           -0.70476742897098       -0.07195423263244       -0.46984236860497
H            0.10219382719712       -0.46725952841569       -0.93711944178952
H           -0.55106928715874       -0.15452918112929        0.53148393645007
H           -1.81885393597725        1.49321718660378       -0.57740321341454
C           -1.92755578695654       -0.78018218104216       -0.84432855697064
H           -1.93653153100098       -0.84458318633415       -1.94141862587626
C           -2.05061764206713       -2.18597068231927       -0.25773910384905
C           -3.09591805516292        0.12426988354289       -0.45697715439245
H           -2.16867363414689       -2.13562169006150        0.82262180432205
H           -2.91114326327052       -2.69901681984083       -0.67539522606250
H           -1.15769483908437       -2.76361640210350       -0.49029164100217
O           -2.78416954725718        1.42690480398230       -0.42442974305884
N           -4.20310410587570       -0.40269693683510       -0.18701498924161
H           -5.06582317212341       -1.89578187911698       -0.59499798768695
C           -5.46806537361262        0.24447825051271        0.08946114729535
H           -5.54128882790625        0.40537288048153        1.17194862400469
C           -5.63193687859206        1.59010196525323       -0.64047711074811
C           -6.52439988319821       -0.78909167899666       -0.29971976485515
H           -4.84496891077049        2.25109528349092       -0.27538691761940
H           -5.44909012651054        1.41247219797825       -1.70382895870974
C           -6.97248595564136        2.31232827640836       -0.48708234096918
O           -6.04456090016759       -1.98515264164155       -0.65696148568678
H           -7.74184993874077        1.73328797249427       -1.00100349297786
C           -7.36840958976071        2.48319254792873        0.97659986607491
C           -6.87577193677834        3.67919865296571       -1.16457297761838
H           -6.59252021575360        3.02031485763120        1.51925461435607
H           -8.29191851916035        3.05261543318169        1.04967939408003
H           -7.52338414445308        1.51831735755679        1.45177713679746
H           -6.58878622307950        3.57329600219920       -2.20815179592370
H           -7.83578711455426        4.18766766900751       -1.12455121942485
H           -6.13534574528975        4.30222851465317       -0.66667862366341
N           -7.75312149171593       -0.50251487245369       -0.27805856908485
H           -9.18289276601937        0.63759108569349        0.04786474391336
C           -8.74685478255600       -1.49000407262430       -0.64547434790657
H           -8.49979337946083       -1.97669667094165       -1.59723787618696
C           -8.91273943896366       -2.57072242272332        0.43080423314516
C          -10.09081701204893       -0.76561697896439       -0.78840328908550
H           -9.12131238853660       -2.10734096094615        1.39342431401309
H           -9.74042475990336       -3.22105767876785        0.16206407464622
H           -8.00164937975379       -3.15795884835457        0.50846583020604
O          -10.09783177703438        0.45422175566917       -0.26329385052874
O          -11.05445539805478       -1.26682892762134       -1.29867404448003
