42
 energy: -62.486133507016 gnorm: 0.000480717796 xtb: 6.7.1 (edcfbbe)
N           -0.89195074214640       -0.91991556764263        0.18936000781239
H           -0.45215905838259       -0.03848982194444        0.43204019849917
H           -0.17435805958410       -1.53826413360860       -0.16951113743956
H           -2.31351938765546       -1.08716237579797        1.42516185366283
C           -1.94993822573203       -0.71977794723112       -0.80172027027810
H           -1.72821083735876        0.06514714790723       -1.53625075147486
C           -2.23409415063241       -2.02826357024062       -1.54028126241061
C           -3.20233444123332       -0.32330060425489       -0.04241773509797
H           -2.45406843019608       -2.82206656499810       -0.82918180983714
H           -3.08838428762980       -1.89475991883435       -2.19711875915332
H           -1.37277738190598       -2.32050170820913       -2.13708715104280
O           -3.21282049533479       -0.72930248014786        1.25643515639485
N           -4.12011860978906        0.29752857169660       -0.62560006122963
H           -4.99781111950615       -1.35177534055198        1.32073051171444
C           -5.35558760939086        0.67248945122239        0.03802345111870
H           -5.15012225829905        0.98763114862813        1.07445213614642
C           -5.97522492253221        1.81982612375232       -0.76061958152114
C           -6.25456470717396       -0.54504865204637        0.11148631930542
H           -5.19940019966767        2.57141564189136       -0.91635524207199
H           -6.25184990089936        1.42246362861343       -1.73653132787902
C           -7.19219437052956        2.46813534663054       -0.09241611835360
O           -5.86517535992310       -1.54280715819717        0.92638658384058
H           -7.84945026052747        1.67577310380231        0.27692375239197
C           -6.77868889969425        3.35116831531631        1.08360929630316
C           -7.96165662030065        3.29812079216872       -1.11836707313942
H           -6.12516008780238        4.15244293950746        0.74428718144412
H           -7.65530558909798        3.79873478363597        1.54632028270755
H           -6.25384866033906        2.77903585002915        1.84468718062014
H           -8.31971542351640        2.67311085262906       -1.93256819251687
H           -8.81997428717558        3.77736655407513       -0.65336925630712
H           -7.32135604475214        4.07294520929294       -1.53469798339592
N           -7.30514653326211       -0.59187270029364       -0.57997648305271
H           -8.30455685844482        0.07706376120517       -1.91571238979612
C           -8.19479925949496       -1.72837597685728       -0.56552311296086
H           -7.64992887872632       -2.67968058321373       -0.61198868427652
C           -9.08929481366850       -1.73036582151751        0.67962953469566
C           -9.09609310450663       -1.60360513097489       -1.80414434454427
H           -9.61326965467986       -0.77994007116315        0.76221863362676
H           -9.81805758088355       -2.53165246435123        0.59674648353526
H           -8.48432432540320       -1.88136803306336        1.57018269439202
O           -8.99946906160406       -0.42520507087381       -2.40647738221842
O           -9.82943076233899       -2.47892336321635       -2.17183004911886
