42
 energy: -62.486133512776 gnorm: 0.000480558369 xtb: 6.7.1 (edcfbbe)
N           -2.55645079715571       -2.32758856396847        0.95773805215919
H           -2.91975699898875       -2.51970323413128        1.88556490837220
H           -1.59125793515325       -2.63190904887028        0.92746242987768
H           -4.14056927043233       -2.48918986216375       -0.02355404558044
C           -2.66988648411692       -0.90740627653092        0.63736094382831
H           -2.39370388983844       -0.24083662835334        1.46574299483560
C           -1.79871603561671       -0.57977875452329       -0.57532273500166
C           -4.13303242026490       -0.64425336093918        0.28197258871188
H           -2.05953807314799       -1.22836561116235       -1.40869546344615
H           -1.95909331949406        0.45371019920113       -0.86593009503629
H           -0.74647316069672       -0.72104391706764       -0.33710383525925
O           -4.77970779372347       -1.74804947723911       -0.13279379135312
N           -4.52327435682580        0.54426686918611        0.31036501281541
H           -8.10257441051136        1.89542089143048       -0.01240997225260
C           -5.81604714526093        1.12839352291268        0.07939948234942
H           -5.86001697707628        1.98548490341559        0.76613458521224
C           -5.74403500030014        1.64097905704010       -1.38677810418132
C           -7.06123288378883        0.30085727913164        0.31330022985503
H           -4.73204280282464        2.03625838245694       -1.50601510135811
H           -5.83079331124576        0.76521470088146       -2.03472459587928
C           -6.72876474309495        2.71627054745102       -1.86308477238539
O           -8.24228774861292        0.96060723567352        0.17690246015409
H           -7.74623404509059        2.31036089885492       -1.89405953681362
C           -6.69843908303340        3.96620239057088       -0.98361720747071
C           -6.36191592726805        3.09907436302353       -3.29855168217247
H           -5.68791835084679        4.36681912647526       -0.94205053297497
H           -7.35176304208061        4.73096487744007       -1.39837682598763
H           -7.02325656209234        3.77033128926853        0.03698933190361
H           -6.37562025446945        2.22498260437124       -3.94509825549823
H           -7.06973812742912        3.82565684027572       -3.69068440375388
H           -5.36656958698796        3.53635165409111       -3.33314979412714
N           -7.01244106482814       -0.87990512307793        0.73376034225980
H           -6.06234178530687       -2.43103315626336        1.14579711911060
C           -8.19503125093162       -1.64118966065262        1.05063361988140
H           -8.92207984429324       -1.05507482602343        1.62668885859674
C           -8.87535582196377       -2.17684439745381       -0.21493304451481
C           -7.73450877853376       -2.84363440429055        1.88468225589263
H           -8.15204085772972       -2.71897840912643       -0.82092742796284
H           -9.68423536918975       -2.84637857654668        0.06412440213574
H           -9.27587992338701       -1.34981425965339       -0.79576739249466
O           -6.44549539213311       -3.12126179534979        1.74304537183713
O           -8.47607065649352       -3.48799392213521        2.57489877665689
