42
 energy: -62.486133511510 gnorm: 0.000480393946 xtb: 6.7.1 (edcfbbe)
N           -1.45427913611577       -0.81320372333699        0.12644594370093
H           -0.78625916465752       -1.57491216683972        0.12941496801459
H           -1.30473384313887       -0.27487985455301        0.97537126456334
H           -2.17860002435075        0.50208737754828       -1.09782326362252
C           -2.82459978811108       -1.32767355344887        0.10758519547154
H           -2.88225783751917       -2.04846746677473       -0.71950327328803
C           -3.27394075262043       -2.00670903020039        1.39725956202680
C           -3.73162270147797       -0.16146533302743       -0.27300256001329
H           -3.25085091599634       -1.29875952519579        2.22178936995752
H           -4.29049405274847       -2.36495341244164        1.28527141740188
H           -2.62034704024678       -2.84562373065417        1.62905072487886
O           -3.12191557425524        0.75776835680881       -1.05516844908374
N           -4.91246324477194       -0.16653165721605        0.13804764870697
H           -7.67453764004407        1.14073483594412       -1.90132967010533
C           -5.97124696577319        0.77618567712059       -0.11190910518076
H           -6.21691822676688        1.18103035835054        0.88144347417639
C           -5.70394738348860        1.95054059404144       -1.06632098244133
C           -7.16434230752132       -0.08765080913815       -0.51276301376185
H           -4.68746338895207        2.30169036222647       -0.89363260918212
H           -5.73197069767140        1.59762730235243       -2.10258954060079
C           -6.66078223162226        3.13811917383021       -0.85705239700340
O           -7.97083660085901        0.30510830875420       -1.51813487100284
H           -7.67267980560365        2.77807546587881       -0.63155364137875
C           -6.20318742666878        3.98989485983892        0.32597149646584
C           -6.71952448143545        3.99548468322251       -2.12115168293201
H           -5.22392193734537        4.41932440149834        0.12541472592326
H           -6.90430651912089        4.80218863723917        0.50331127011469
H           -6.13710448218712        3.39506718924693        1.23399962794221
H           -7.10329275030818        3.43037241172956       -2.96918412390981
H           -7.36690847220725        4.85577253884387       -1.96797733865734
H           -5.72534632676355        4.35661311396899       -2.37510195223043
N           -7.33674400979538       -1.15724587231078        0.12339255181878
H           -6.78807881579523       -2.19339566959289        1.43917126137076
C           -8.39390956138050       -2.10051007771514       -0.13782678840699
H           -9.38089462091252       -1.62138670482740       -0.10385935298819
C           -8.23734984318537       -2.81417738998858       -1.48473079809287
C           -8.31656785311973       -3.15186953329121        0.98532425286703
H           -7.23938582973272       -3.24151474137170       -1.56091877030937
H           -8.97266989745809       -3.61098951638975       -1.55310950190645
H           -8.38646093110994       -2.11190180824562       -2.30057894877730
O           -7.25670608007579       -3.00442430600366        1.76720143357406
O           -9.12674213117264       -4.02746566374142        1.11869177528389
