42
 energy: -62.486133510752 gnorm: 0.000480343262 xtb: 6.7.1 (edcfbbe)
N           -1.21834401942094       -1.44264251803928        0.81130462926119
H           -0.21074962543221       -1.46573888105845        0.71607280918360
H           -1.55202212296882       -2.40165602215630        0.77422654091773
H           -2.56946471983358       -0.67212735408028        1.93790039239010
C           -1.83230029511843       -0.65667603805902       -0.25617064959541
H           -1.24605435911901        0.26301683400442       -0.36864523334631
C           -1.91355347833467       -1.36553534398804       -1.60767093896704
C           -3.21096303846766       -0.23014005493056        0.23218525152448
H           -2.43551747714888       -2.31654128174675       -1.50650373948957
H           -2.45554320896184       -0.74094314047193       -2.31040359091805
H           -0.91568242678990       -1.55748837540685       -1.99687473732254
O           -3.39538928350128       -0.30924302464490        1.55686399636764
N           -4.05715369774261        0.20036387661235       -0.59884811795482
H           -4.86749582965024       -1.56375508380912       -0.99352531559711
C           -5.38113532697931        0.60662701338993       -0.16924162297011
H           -5.38890385413203        0.91039505010138        0.88582408349818
C           -5.75156815829946        1.79958274772303       -1.06967451088263
C           -6.32794148264776       -0.57176503891158       -0.31552383955056
H           -4.99009095079243        2.56361350646353       -0.89491061781153
H           -5.64775512948087        1.46767853141788       -2.10475108816617
C           -7.13584396524354        2.42042565294673       -0.87823104207262
O           -5.78833363427833       -1.73427138227108       -0.72967242056007
H           -7.88813492451456        1.68431964219401       -1.16924614038369
C           -7.38359083484914        2.83822164846215        0.56837474503119
C           -7.27202117471676        3.62975158907217       -1.80291910277374
H           -6.62672861068235        3.54992544057903        0.89299187752952
H           -8.35855653142415        3.31109660171463        0.65923308522098
H           -7.35819667023329        1.97748583783482        1.23098639043746
H           -7.10338806577889        3.34458133338401       -2.83864045314149
H           -8.26984221161748        4.05359846623582       -1.72337319212912
H           -6.54992635188882        4.39906457362828       -1.53655186278953
N           -7.56570267622640       -0.41665433205784       -0.13541746234147
H           -9.05041771570148        0.61188747983973        0.29333469876949
C           -8.49041354758669       -1.51362594038299       -0.31849802047908
H           -8.30714215332800       -2.04407227620309       -1.26165394890622
C           -8.42210325489339       -2.52272237041448        0.83462055247961
C           -9.90658488740590       -0.92405287684521       -0.34218683357815
H           -8.57041824013717       -2.01266292250462        1.78458945668489
H           -9.20096438275896       -3.26907757275679        0.70524930150231
H           -7.45085534332723       -3.01060929687651        0.84155135336259
O           -9.97219999863044        0.32407865009671        0.10574409032242
O          -10.86719760015144       -1.54573919280774       -0.70298370714423
