42
 energy: -62.486133501640 gnorm: 0.000481367441 xtb: 6.7.1 (edcfbbe)
N           -2.20902997715872       -0.26753511402848       -1.65397700057530
H           -2.26459283286899        0.73447848557049       -1.80661613093174
H           -2.10023097625811       -0.71415858420483       -2.55826594786782
H           -1.52705376591106       -0.60872740259676        0.21940960157612
C           -3.41788142774679       -0.76039144064925       -0.98754266113797
H           -4.35290201750034       -0.43981317771225       -1.46209931649422
C           -3.36511319921844       -2.28939855989793       -0.96192528432310
C           -3.34814340032797       -0.25777837992102        0.45429704607518
H           -2.40725371979475       -2.62599461292953       -0.57024180908993
H           -4.16036321299633       -2.66814938552002       -0.33004045677043
H           -3.49163516699642       -2.68412298234777       -1.96754351398676
O           -2.11686246542657       -0.39081347590346        0.96656547968429
N           -4.21343438297122        0.24661327000879        1.21552685717152
H           -7.93891084193567        0.65827649805052        1.30107414258349
C           -5.56376138725904        0.64532968092807        0.97305302900636
H           -5.93901587090870        0.91976842275365        1.97106537259142
C           -5.54139603143570        1.91609617426210        0.08011246214913
C           -6.53747741832445       -0.35771267214274        0.39791269509845
H           -4.73200510605677        2.54322692415301        0.46055928073612
H           -5.27187980493300        1.60227897399276       -0.93058675277335
C           -6.82327112411267        2.75455053697979        0.01139648875981
O           -7.86254967017461       -0.09474091027392        0.70207163654728
H           -7.65583104433440        2.13248530386774       -0.33533175093600
C           -7.17764493194689        3.37846412435117        1.36103219507133
C           -6.62879380819142        3.86405910328786       -1.02304806730111
H           -6.37552836680442        4.03629040778308        1.68780407815995
H           -8.08828144469130        3.96724634853554        1.27436229928256
H           -7.33296635658826        2.63360494009730        2.13950631351556
H           -6.42302503484348        3.44366744693069       -2.00460507319160
H           -7.52472681558351        4.47588393194690       -1.09583380043355
H           -5.79671646047804        4.50526901831652       -0.74057930842469
N           -6.16723627945774       -1.34786354784995       -0.26701865590609
H           -8.55572645460305       -0.50892667176160       -0.93585132111052
C           -7.00766711152870       -2.35100165241929       -0.87425377965622
H           -6.32036234885928       -3.12049626095460       -1.24411582308377
C           -8.02935129700167       -3.00594605494549        0.06242380433463
C           -7.72081549016426       -1.77921820664848       -2.10962122479472
H           -8.78241257422280       -2.29888833265436        0.40257414630102
H           -8.52212628429497       -3.82227352176538       -0.46006196473104
H           -7.51343109493332       -3.40475579729454        0.93311880137713
O           -8.54240581621705       -0.75543390899008       -1.88010830847970
O           -7.55438438162739       -2.22049585981444       -3.21062010326085
