42
 energy: -62.486133512469 gnorm: 0.000479693739 xtb: 6.7.1 (edcfbbe)
N           -1.08918748303078       -1.71864607086779        0.15906221001061
H           -1.05773927076243       -1.92900153593706        1.15118470227119
H           -0.13595300999791       -1.67843604055624       -0.18207481620926
H           -2.68741281782692       -2.50154200169379       -0.45146793735518
C           -1.78392943817598       -0.45450312831119       -0.08317566176186
H           -1.57683610234351        0.31741186013372        0.66919446546756
C           -1.41803889598993        0.08344114201055       -1.46638267412980
C           -3.27989259683582       -0.75135085103392       -0.06728522918624
H           -1.62989141301968       -0.66386643560554       -2.22829096359461
H           -2.00129929134485        0.97518604107311       -1.67467456388160
H           -0.36057924109403        0.33595547891774       -1.50775637438973
O           -3.55653979002340       -2.04610582560865       -0.39320789704240
N           -4.06437614097261        0.17837443413034        0.19316587894241
H           -5.12941134603034       -2.14413673353478        0.21838457889613
C           -5.48505837398986        0.38463731147449        0.21661876971911
H           -5.66889054688850        0.88999382190962        1.17393425076301
C           -5.68200423881349        1.42056956778215       -0.92050218131944
C           -6.48186557059713       -0.76748147493097        0.15237932293485
H           -4.87426873236448        2.14507776781228       -0.79182900513545
H           -5.51346592962141        0.90366929173751       -1.86827169488782
C           -7.00821669298358        2.17973815878952       -1.00390326078568
O           -6.08653403804292       -2.03006514656212        0.35897142589468
H           -7.77822535533237        1.49411558924149       -1.36012611526991
C           -7.43341198213195        2.75947278741373        0.34128485439662
C           -6.86519652584294        3.30112872111400       -2.03352405346962
H           -6.65203036908082        3.40214438905461        0.74206456646564
H           -8.33660466567866        3.35330735490537        0.22253312679391
H           -7.63707469019792        1.96847647245269        1.05800498987205
H           -6.54714027341235        2.90417614946369       -2.99465991149533
H           -7.81710837596901        3.80728532294987       -2.17213160570040
H           -6.13120217246084        4.03396113354030       -1.70408397317804
N           -7.70175991138094       -0.48329625837838       -0.02945439541689
H           -9.17705197886964        0.68416379298315       -0.17857857194903
C           -8.69724375628586       -1.53508846445757       -0.04351933162070
H           -8.38853803888040       -2.37985076062413       -0.67154734561234
C           -9.00038027501044       -2.05651921540261        1.36837780441401
C           -9.99784510654362       -0.94249584078419       -0.59243734774704
H           -9.28975083166862       -1.23097844984079        2.01640852437971
H           -9.81493137113901       -2.77390141000782        1.32057644250413
H           -8.11836017856069       -2.53938887143938        1.78034079356276
O          -10.05362238438203        0.38281239811447       -0.50319960420847
O          -10.89732205433237       -1.61047004594685       -1.02146742580999
