42
 energy: -62.486133510453 gnorm: 0.000479998709 xtb: 6.7.1 (edcfbbe)
N           -1.04528528378969       -1.45897331317737        0.61736201532414
H           -0.97581415746461       -1.17308483289629        1.58863531442476
H           -0.10495556846538       -1.57359425650042        0.25788778208253
H           -2.66647656774527       -2.43800893462546        0.54652899302614
C           -1.78340423133693       -0.46701015608423       -0.16312187327812
H           -1.54894536435106        0.57301350672556        0.09880767989054
C           -1.51834960176863       -0.68086343104727       -1.65395949347679
C           -3.26600652825404       -0.70462517540079        0.09497324225228
H           -1.75428310715611       -1.70532835408359       -1.93527039528655
H           -2.13558261626696       -0.00227894847736       -2.23499280114589
H           -0.47254494516307       -0.48847896045622       -1.88378650887795
O           -3.53777113420944       -2.00118714597706        0.42449771832539
N           -4.05244771137493        0.25218357385343       -0.02819695771726
H           -5.08914586836557       -2.05027881363360       -0.28753243249560
C           -5.47190686129203        0.44582283058170        0.08926862880880
H           -5.63983417684567        0.82492358031036        1.10504365325913
C           -5.73447044518873        1.60220421932455       -0.91097843539598
C           -6.45489343844156       -0.69660134317140       -0.13414405994981
H           -4.92141086872091        2.31244799187153       -0.74892657262680
H           -5.61951836426949        1.19732090046116       -1.91895227057949
C           -7.06610523672827        2.34967470793218       -0.82788398178876
O           -6.03586116302555       -1.92293109706349       -0.46850564296512
H           -7.86662202184361        1.67643751404491       -1.13953732206500
C           -7.35788926213870        2.85531912420050        0.58180481686185
C           -7.03131521064928        3.52548398971220       -1.80453353232729
H           -6.54739674999634        3.49193288370941        0.93153802128781
H           -8.27651776962123        3.43676572641175        0.58653161379589
H           -7.47685455795731        2.02919055285692        1.27778134438139
H           -6.81860047811256        3.18277334522076       -2.81435096327453
H           -7.99097245242192        4.03592597764209       -1.81269413861420
H           -6.26389067586424        4.24094926615141       -1.51577133720206
N           -7.68712868593696       -0.41282621628577       -0.08099518402117
H           -9.10172731632290        0.73156373008832        0.27105662111143
C           -8.69264995844545       -1.42205274449700       -0.33918074873848
H           -8.49576974735429       -1.95655452130437       -1.27672427809223
C           -8.80089988878139       -2.44700702695212        0.79800876356344
C          -10.04661930721207       -0.71021661752544       -0.44587685810310
H           -8.95903837695804       -1.93548303639147        1.74582979645614
H           -9.64230368941721       -3.10673880758015        0.60510800341039
H           -7.88888452905503       -3.03474681840202        0.85844378174008
O          -10.03350338728857        0.53121878645598        0.02634155126684
O          -11.03259394883754       -1.23830759249993       -0.88059827706900
