42
 energy: -62.486133518431 gnorm: 0.000479079983 xtb: 6.7.1 (edcfbbe)
N           -2.00121126581520       -1.57631775203254       -0.82631494872788
H           -1.82885368437469       -1.14878241555129       -1.73046619806488
H           -1.91423604316825       -2.58077421771425       -0.93150095048255
H           -1.41011435969859       -0.30924814857648        0.44239857740580
C           -3.32463658915190       -1.21743941250283       -0.31563017548156
H           -4.09623420435106       -1.24086924720915       -1.09399941828155
C           -3.71039814679446       -2.17723269475187        0.81240635954964
C           -3.20907307707649        0.17741927084674        0.32321443275635
H           -2.94589511118784       -2.16174911330466        1.58654901790899
H           -4.65729574680404       -1.87270644890588        1.24990489856826
H           -3.80571504587642       -3.19323431136084        0.43336380001963
O           -1.96839903780088        0.43762709787820        0.74952773090685
N           -4.10113546878125        1.00934772458842        0.62185555085068
H           -5.51278249128919        0.51922497501001       -2.15735533097033
C           -5.45998203063407        1.17352531308194        0.20837197726857
H           -5.99945316949035        1.37933319218284        1.14164131360729
C           -5.51979333116363        2.43779492149167       -0.67052460501421
C           -6.18385745851737        0.00610810058309       -0.43367882734483
H           -5.06876926155153        3.24183931875009       -0.08807705151841
H           -4.88380940483509        2.30233352489860       -1.55302390650123
C           -6.93255088128555        2.84923410894036       -1.10434720569391
O           -6.01938230533865       -0.20345117582638       -1.76372300178172
H           -7.39161319889026        2.03901432504411       -1.68322685818587
C           -7.82928430726177        3.13988375549197        0.09655346409687
C           -6.84009591458524        4.08384356032039       -2.00068615085562
H           -7.36149372714661        3.87106485402914        0.75146242986415
H           -8.78246428999233        3.54040835477990       -0.24008461083198
H           -8.02859458510403        2.23607634132004        0.66611208080870
H           -6.21222613387350        3.89249493189179       -2.86864996797780
H           -7.82738574193270        4.37240960255969       -2.35236508342607
H           -6.41505790979861        4.91853533455868       -1.44812056073400
N           -6.94740318339775       -0.70513652094162        0.27170863167788
H           -7.95648405683149       -0.89763389307984        1.79614043132423
C           -7.74469026336745       -1.76659777278880       -0.30250290673065
H           -8.14681998095314       -1.47862812869155       -1.28265474687875
C           -6.96575327923404       -3.07614320930044       -0.46180644568191
C           -8.91678782298171       -2.02604233962998        0.65646284626507
H           -6.55663996247777       -3.38870067576769        0.49637831630385
H           -7.64080752395182       -3.84545722748073       -0.82599554207883
H           -6.15484430627768       -2.94379394492098       -1.17367318736901
O           -8.78616491585263       -1.42494254078149        1.83302159005583
O           -9.84800200120565       -2.72466287509430        0.37027075510220
