42
 energy: -62.486132327624 gnorm: 0.000617965832 xtb: 6.7.1 (edcfbbe)
N           -2.08976081259691       -0.46537039273293       -1.58872014350664
H           -2.09151732041369        0.51785328010688       -1.84111360171775
H           -1.97496840251034       -1.00352723986123       -2.44052077164056
H           -1.46053794838558       -0.59791356883143        0.27370787374708
C           -3.34437804269803       -0.82987060913712       -0.92228624224879
H           -4.24439264746908       -0.48871092614347       -1.44523074091922
C           -3.39148076711474       -2.35169096541641       -0.77398666093259
C           -3.27817532644023       -0.21946697190190        0.47783164518689
H           -2.49879147707555       -2.70752363558329       -0.26334639970020
H           -4.26609665865210       -2.63504550047323       -0.19876887744173
H           -3.44549438561077       -2.82238482943691       -1.75331084004006
O           -2.04869964386621       -0.31661257179958        1.00321608345620
N           -4.14130701049787        0.34632572901182        1.19620280701400
H           -7.76874349492535        0.39040473546062        1.71257107760678
C           -5.50390974630748        0.70545548331034        0.96847537987719
H           -5.86137136391481        1.00255975091189        1.96652798067630
C           -5.54222960248362        1.94763721269570        0.04073205906699
C           -6.48107165585223       -0.31449975223990        0.42448677947949
H           -4.76454210190828        2.63075494872641        0.38825109872659
H           -5.27289195065314        1.61151775055788       -0.96230331754790
C           -6.88046360128084        2.69287282767940       -0.02011839777104
O           -7.73932635441226       -0.25798630329100        0.99782213577118
H           -7.68641696192861        1.98227817074444       -0.23409614296426
C           -7.18516200255261        3.42233398173625        1.28753511990251
C           -6.84014783437798        3.69978596871060       -1.16931495926171
H           -6.41453605714777        4.16291911766840        1.48913070822725
H           -8.14196073663368        3.93475609604498        1.21755793402852
H           -7.22797115833732        2.74483268958252        2.13777386602823
H           -6.69225766487608        3.19233375408666       -2.11949988259099
H           -7.77441654045143        4.25350563991384       -1.22114558892390
H           -6.02754215692362        4.40841636545299       -1.02479637178256
N           -6.17451692787743       -1.11812052213891       -0.48115857077736
H           -8.71797379439372       -0.49123116319421       -0.52497340239543
C           -7.02453631842195       -2.10446808027913       -1.10158733516301
H           -6.35727567184867       -2.70277581981694       -1.73285099307811
C           -7.75967692412453       -3.03444415337608       -0.12936430576593
C           -8.03711426017570       -1.44175830009477       -2.04903143122266
H           -8.48015027341189       -2.49486058535284        0.48099979517745
H           -8.28098152827205       -3.80382452978146       -0.69363517920016
H           -7.03800780549631       -3.51018621616296        0.53129778798017
O           -8.88373417986781       -0.58335585917105       -1.48239202240333
O           -8.07166171745845       -1.68289100631871       -3.22160713700448
