42
 energy: -62.486132285646 gnorm: 0.000623263807 xtb: 6.7.1 (edcfbbe)
N           -1.47910299186667       -0.20115992692266        0.68143833390451
H           -0.74439917837573       -0.75381816938817        1.11018040620234
H           -2.16743469699131        0.02587406349957        1.39139136758969
H           -2.95255073138239       -0.40529212555968       -2.60724938365837
C           -2.12542121684054       -0.95408586001743       -0.37487962225507
H           -1.45274313862730       -0.93932345537848       -1.24697375460751
C           -2.43661850458861       -2.41837500230483       -0.01180002996286
C           -3.43225434811109       -0.27911628774729       -0.72758618761823
H           -3.10710479816755       -2.44234798826144        0.84394539832535
H           -2.91387113790339       -2.93294283435195       -0.84298847293712
H           -1.51692107741245       -2.94307638073219        0.23864668818067
O           -3.70444599763393       -0.13339967625648       -2.06655898621330
N           -4.18877265991374        0.06630603339526        0.20554957204180
H           -5.57514539066995       -0.25025666031436       -2.16635298733620
C           -5.48804867874137        0.69047604176546        0.09810159424628
H           -5.79254591504156        0.87399721934559        1.13296484197493
C           -5.44732434652371        2.02196955053773       -0.67156889732633
C           -6.51575281499475       -0.24666490134963       -0.50119248237503
H           -4.75531769950367        2.68600407277290       -0.14878902777136
H           -5.04207396315450        1.85115590991952       -1.67219456279816
C           -6.81576198749546        2.70100895255331       -0.80001294080179
O           -6.39505806225388       -0.60712586707989       -1.78730384929745
H           -7.50403917700399        2.01586276350360       -1.30804612402300
C           -7.40801722367516        3.05462716875875        0.56162187688398
C           -6.67164904370109        3.96025603815760       -1.65372893164415
H           -6.70542664986604        3.65270363864248        1.13803611385881
H           -8.32138971538902        3.63002481333072        0.43133634185192
H           -7.65360317794383        2.15924064620437        1.12560169401556
H           -6.26899872613994        3.72119239629727       -2.63579705810141
H           -7.63804434270677        4.43927815091218       -1.78933380620321
H           -6.00215954410793        4.66910063135807       -1.17097368517154
N           -7.44918540236128       -0.64948608700387        0.24540026383472
H           -8.43432791736839       -0.47606046877221        1.75709576575980
C           -8.48611806209534       -1.53091673011781       -0.24368349210613
H           -8.83577052473306       -1.23707836181194       -1.24155000649723
C           -8.01278301235837       -2.98784179799698       -0.29536672350725
C           -9.66202597146933       -1.43860254543603        0.74010259309376
H           -7.61076776389538       -3.28139274714010        0.67231351263077
H           -8.85412789635479       -3.62914817130314       -0.54212234508407
H           -7.23867773287330       -3.09988372093508       -1.05033293739866
O           -9.36493007983228       -0.78572597778948        1.85723246552755
O          -10.73547996600018       -1.92798185509596        0.52436262437046
