42
 energy: -62.486133519930 gnorm: 0.000479166796 xtb: 6.7.1 (edcfbbe)
N           -0.94011724549506       -0.43192624746872       -0.81021952268444
H           -0.24427640528122       -0.95115169999674       -1.33219818303129
H           -0.70019437380661       -0.50766883531960        0.17469465967390
H           -1.89433114240995        1.27388029490450       -0.86000793872056
C           -2.27545914872647       -0.98689740670553       -1.03497110003023
H           -2.41381121304889       -1.05899172697724       -2.12210062862307
C           -2.52336736446030       -2.35542997844846       -0.40822900840569
C           -3.28390207883609        0.04444427879051       -0.54917110989809
H           -2.34909224157674       -2.31351499924540        0.66488973290132
H           -3.55749270246746       -2.63568285236491       -0.57543028960992
H           -1.86469659734596       -3.10197025100491       -0.84737724399328
O           -2.83597894618492        1.31812774724652       -0.60156844897264
N           -4.40431419678220       -0.34723534992180       -0.15044407878142
H           -7.27009094491100        0.49957475664758        1.93858092464929
C           -5.49339224918704        0.49728183246821        0.26319395060991
H           -5.28976208336217        0.86737463695821        1.27958077856398
C           -5.75157460957088        1.68762556805460       -0.68569346783167
C           -6.73246503342764       -0.36960220352061        0.27352195627454
H           -4.85091556061158        2.30005779707100       -0.72459131326589
H           -5.91970682113734        1.25998436560376       -1.67608930805021
C           -6.94309724837514        2.57296525123895       -0.30477564719854
O           -7.61441661560491       -0.16057111260607        1.32536959519650
H           -7.82881441679209        1.94820966275644       -0.14633228622211
C           -6.66561812735981        3.38294150171435        0.96134932774743
C           -7.25288316417482        3.52190686939169       -1.46147638453463
H           -5.80891344388670        4.03534816655413        0.80598442073694
H           -7.52565815670316        4.00069112747680        1.21035458277864
H           -6.45130214780242        2.74682398313159        1.81836899814147
H           -7.51329666449263        2.96039015746219       -2.35508247495211
H           -8.08949618962822        4.16924171098668       -1.20882951468551
H           -6.38919819408443        4.14486340284283       -1.68383272927309
N           -6.91348291427522       -1.19481882167366       -0.64335618512127
H           -9.13496232458061       -0.31243301712865        0.35859179739077
C           -8.01883353251998       -2.10175691762962       -0.80444988796261
H           -7.73817616383457       -2.75469151698338       -1.63903703155773
C           -8.31749856788574       -2.96492794366036        0.42916823544513
C           -9.30747745198890       -1.38042303997641       -1.22864692800585
H           -8.65268769715216       -2.36019569617326        1.26895888906182
H           -9.08953058989711       -3.69072458045261        0.18563129675714
H           -7.41341474086273       -3.49310754339676        0.72308573104335
O           -9.73064301477393       -0.41899696312139       -0.40741185332173
O           -9.91184892391293       -1.67104006222975       -2.22106714696001
