42
 energy: -62.486133533988 gnorm: 0.000477449484 xtb: 6.7.1 (edcfbbe)
N           -0.95292172602155       -0.66103942755764       -0.07561978662135
H           -0.11687636540320       -0.84921594671474       -0.61550062248374
H           -0.99870086384032       -1.35545138344954        0.66546092256005
H           -1.88877317810015        0.79924756685581        0.77186287135374
C           -2.14797699049462       -0.75891937066129       -0.91563730700834
H           -1.94600362229594       -0.19651100809193       -1.83603743938467
C           -2.56734411403169       -2.18128234761741       -1.27625323453886
C           -3.27002976504698       -0.02537653497011       -0.19764983959661
H           -2.69569208780052       -2.77276248928445       -0.37175890145105
H           -3.51845440514332       -2.14610362140936       -1.79630703766802
H           -1.81793793891483       -2.65521773710936       -1.90686382124683
O           -2.86226659209380        0.87875400569098        0.72023391530942
N           -4.46273030181967       -0.27367552211539       -0.49601931058840
H           -7.38100546791688        0.43833880910332        1.70740948652664
C           -5.54715162998290        0.43467244720250        0.12926461793165
H           -5.31668952572828        0.66405346595351        1.18335934690801
C           -5.78436808730444        1.74970881966644       -0.64536837940629
C           -6.78435721027719       -0.42450069012222        0.05763759960416
H           -4.84617144605421        2.30873210409620       -0.63213829255618
H           -5.99699277459346        1.46660498574603       -1.67777447738077
C           -6.90899340930845        2.64448526346658       -0.11488690988459
O           -7.70568990597883       -0.21721799156964        1.07809975779112
H           -7.83292555550053        2.06148332013280       -0.03434445214374
C           -6.56554760251599        3.24229574897455        1.24952882501419
C           -7.16479566864718        3.77096439970158       -1.11539886081809
H           -5.67201250157971        3.85800406055158        1.17172312944886
H           -7.38216241892818        3.86727076168690        1.60443141600215
H           -6.37686173531021        2.47782467278202        2.00118240172593
H           -7.45972517426758        3.36518258053673       -2.07973633751311
H           -7.96040925237629        4.42155598105437       -0.75991019420853
H           -6.26638260679909        4.36897120220926       -1.25231730640314
N           -6.93623489559966       -1.24058948206034       -0.87161437336256
H           -9.17428903297199       -0.32128058399321        0.02956937800444
C           -8.04482416087038       -2.13176631094210       -1.08687280571116
H           -7.73772353495004       -2.78193847348143       -1.91416257613483
C           -8.40673984636092       -3.00051095144909        0.12619011525234
C           -9.30861458406759       -1.39465636062384       -1.55703512356631
H           -8.76909290731392       -2.39717396983181        0.95570823207205
H           -9.17743543462338       -3.71382833306855       -0.15512163518151
H           -7.52322829129892       -3.54378702512652        0.45347364819861
O           -9.74415880664922       -0.42141418064005       -0.75661061304344
O           -9.88589982851169       -1.68595648672138       -2.56526096054631
