42
 energy: -62.486133514696 gnorm: 0.000480145026 xtb: 6.7.1 (edcfbbe)
N           -2.07218560251414       -1.74298731992864       -0.84031261392214
H           -1.96907623348618       -1.47241000848360       -1.81254844166851
H           -2.01746364841887       -2.75327703544525       -0.78859978431905
H           -1.34695886114298       -0.29350485027979        0.12577492965715
C           -3.33886865176260       -1.25921881582564       -0.28951767875279
H           -4.17603455151236       -1.38764351880967       -0.98571768185492
C           -3.64198808916592       -2.00094050164144        1.01385791915016
C           -3.14210923811220        0.21997073005583        0.08048070158499
H           -2.81448280827385       -1.87660373344020        1.70976017284912
H           -4.54485399221879       -1.59867112499168        1.46591994156126
H           -3.78320154357331       -3.06336116099457        0.82366114874373
O           -1.86346546104371        0.51301735379271        0.34134531344387
N           -3.98655188881589        1.12668894866133        0.28459147092694
H           -5.58775579682103        0.39555967553113       -2.28155351745084
C           -5.38622431187056        1.23003145650646        0.01216352796464
H           -5.83515127202129        1.48278795872908        0.98131316735860
C           -5.57516307278144        2.43309016877511       -0.93228711420738
C           -6.13666381582460        0.01023363133803       -0.48429120368965
H           -5.09601891727133        3.28522933917582       -0.44935715257557
H           -5.02594455000575        2.25785279158675       -1.86432864752468
C           -7.03726438170696        2.77413320858220       -1.24665457576988
O           -6.06107980218653       -0.29734550855629       -1.80262647613051
H           -7.51925895692282        1.91640239712861       -1.73078865919203
C           -7.82328230786967        3.10782427180180        0.01912474818800
C           -7.07773897318078        3.95506363654895       -2.21611004617633
H           -7.31569474391290        3.88336897671392        0.58790250161399
H           -8.81521056344510        3.46792737464650       -0.24335945397281
H           -7.94237332681561        2.23115979559443        0.65039859719016
H           -6.53042335242658        3.73116481138742       -3.12968446680491
H           -8.10452057427502        4.19131929470945       -2.48413757438694
H           -6.63182983751953        4.83411763422234       -1.75656317589704
N           -6.82232899985926       -0.66160879195372        0.33174867156355
H           -7.81994861011833       -0.65189577174458        1.88677636114726
C           -7.64544512512226       -1.77126673283174       -0.09446972977959
H           -8.02648441379259       -1.63134398303702       -1.11430092288113
C           -6.89992070188570       -3.10816677266250       -0.02538231570507
C           -8.83567605717131       -1.85197099618892        0.87396096878002
H           -6.49913436820493       -3.26197882953098        0.97415840422216
H           -7.59329376863701       -3.91177750498637       -0.25747870518206
H           -6.08487571411135       -3.11993974906418       -0.74480937875985
O           -8.67533803310286       -1.12853971639040        1.97629762062145
O           -9.80356786566210       -2.52574136583995        0.66071426368035
