42
 energy: -62.486133510967 gnorm: 0.000480139206 xtb: 6.7.1 (edcfbbe)
N           -1.65902850371742       -1.51380833202892       -0.99636554995312
H           -0.98183043260619       -2.24703637179339       -0.82502702485977
H           -1.14183832326299       -0.65950377029981       -1.18688551331360
H           -3.23816817321321       -1.24494543681077       -2.00840402648786
C           -2.52652517353013       -1.31834411565245        0.16583125516114
H           -2.84655977156181       -2.31176099227869        0.50532191310815
C           -1.87915856021727       -0.57289368172345        1.32872886724901
C           -3.78369222537371       -0.61108683985419       -0.32267852121964
H           -1.52936677231660        0.40308127687844        0.99959050603510
H           -2.61378081321231       -0.42556990815502        2.11210536047550
H           -1.03662264771183       -1.13839737071425        1.72160680712715
O           -4.00411751877368       -0.74627479934672       -1.65331920803386
N           -4.48962232246490        0.02321406681147        0.49510964818003
H           -5.82914400369090       -0.04320211856991       -2.19297269146368
C           -5.74230380714146        0.68436804107534        0.18554613601148
H           -6.17191481235931        0.92005483934765        1.16402167140424
C           -5.48850155846860        1.98393205370530       -0.59594668040262
C           -6.73119251420149       -0.22391184036868       -0.51830811656266
H           -4.84151616277933        2.61333739482519        0.01923328081594
H           -4.93432994163242        1.75192046746049       -1.51109376940037
C           -6.75968004490243        2.76022058331290       -0.95860028986298
O           -6.66410650626473       -0.39145211213708       -1.84782534426601
H           -7.40966292474109        2.12034889223777       -1.56549094591267
C           -7.53502060372216        3.19003591869257        0.28416390132591
C           -6.37867388755705        3.98445766378042       -1.79057776015040
H           -6.89260036680467        3.75281073812796        0.95809629527435
H           -8.37167612534586        3.82384322508416       -0.00040435611338
H           -7.93087355287613        2.32881338100175        0.81546812729136
H           -5.84058253856404        3.69245837791828       -2.69015634221109
H           -7.26854605635112        4.53273963570695       -2.08950385056087
H           -5.74354109789222        4.65179114590627       -1.21169221444780
N           -7.58819757456258       -0.80593968472719        0.20265556381586
H           -8.48133133741407       -0.95439175504921        1.77057626656987
C           -8.55818061738569       -1.72095712161830       -0.35763578201369
H           -9.01228466015769       -1.32446938724797       -1.27440054775295
C           -7.93464339071676       -3.08730446115165       -0.66478258678256
C           -9.65896027082872       -1.91681485953032        0.69472365104788
H           -7.43845662485759       -3.47446133465725        0.22313573853936
H           -8.71618244924223       -3.77848139621192       -0.96730529723506
H           -7.20588180385301       -2.99092258393176       -1.46567609342663
O           -9.35981871015199       -1.39063985176059        1.87612590317719
O          -10.67998593270419       -2.50650665291921        0.47266167249229
