42
 energy: -62.486132528063 gnorm: 0.000654851101 xtb: 6.7.1 (edcfbbe)
N           -1.95228377946282       -1.41880754077271       -0.68732538654749
H           -1.36457327772652       -2.23585495246531       -0.57663195640253
H           -1.36884323969442       -0.60040705649865       -0.53593364464278
H           -3.28262180602343       -0.74650912110339       -1.90315489280393
C           -3.04998739363324       -1.43144111996632        0.28089533097659
H           -3.48516124815123       -2.43883096452915        0.26701696960292
C           -2.64826965064832       -1.07757858798773        1.70956289083928
C           -4.12894737344967       -0.49579338458277       -0.24601562827656
H           -2.18157990415463       -0.09416220685049        1.73496286271180
H           -3.53499181901130       -1.05242360090944        2.33311192790753
H           -1.94859826911277       -1.81276119351325        2.10203241458202
O           -4.08439806913257       -0.28871694852808       -1.57614686690201
N           -4.98455082448485       -0.03710461163429        0.55027798943823
H           -7.54546681143700        1.15396380279105       -1.86115003374254
C           -6.07569968700144        0.81404158398742        0.12032850956081
H           -6.47645703092859        1.23144871176460        1.05508287603888
C           -5.66778409113016        1.97116803295042       -0.80443158014462
C           -7.16040077736066       -0.08840444469703       -0.44682000753307
H           -4.66636381430827        2.28953462129957       -0.50615418380884
H           -5.58157249150781        1.61247444511274       -1.83409806005480
C           -6.61226674926046        3.18259878257192       -0.72017969759206
O           -7.85901994616657        0.30266611253513       -1.53024894517443
H           -7.64947970376498        2.84039700265513       -0.61280885495474
C           -6.28028639204411        4.04076137939992        0.49901069734781
C           -6.50813262222421        4.02331205752656       -1.99262121767864
H           -5.28502896962244        4.46863678664800        0.39925027871964
H           -6.99471266333862        4.85468880785337        0.59709960434257
H           -6.30880774622696        3.45018951659213        1.41125530628716
H           -6.79205327795850        3.44999434048379       -2.87361495770109
H           -7.16034205722923        4.89115760911855       -1.92930117511423
H           -5.48717337376199        4.37302547080587       -2.12918578540896
N           -7.36674560120247       -1.18186594722144        0.14015266299098
H           -7.00906699709929       -2.25040404839411        1.53051146290830
C           -8.34754991838089       -2.14505756298482       -0.29631668320731
H           -9.33860494301775       -1.68801452085080       -0.41364371438603
C           -7.95807571054490       -2.82433918874397       -1.61373015692266
C           -8.42672350881149       -3.21903160272555        0.80226264808612
H           -6.95237381622860       -3.23274273985809       -1.53436471747211
H           -8.65547404466211       -3.63150097958829       -1.81897309887407
H           -7.98540381790269       -2.10481678633071       -2.42762415192193
O           -7.51316263536629       -3.07217714413546        1.75204471892567
O           -9.22715545071740       -4.11333872030614        0.78455171090914
