42
 energy: -62.486133512545 gnorm: 0.000479548056 xtb: 6.7.1 (edcfbbe)
N           -1.51809092812621       -1.10267525917089       -0.23155373458925
H           -0.94891164897408       -1.94056371961250       -0.24462201307345
H           -1.06709711489772       -0.43677213520402        0.39033802246055
H           -2.43429594367398        0.04280880480072       -1.46010176168503
C           -2.86648164684878       -1.39793455343380        0.25586858694566
H           -3.22135203264788       -2.28143698829536       -0.29077558654564
C           -2.95954489339281       -1.66957163741286        1.75425760588763
C           -3.76780135136990       -0.24209401151533       -0.17353227262269
H           -2.59872857416916       -0.80898152654550        2.31511875065388
H           -3.99485710189229       -1.84657577994623        2.02501374506122
H           -2.36474607891838       -2.54177339698369        2.01787994276549
O           -3.31287436752114        0.42324847398497       -1.25355727585634
N           -4.82058078426159       -0.04739121472557        0.47466577221885
H           -8.21712553849931        1.65407138644829        0.48281228988136
C           -5.87600718818867        0.90184460654212        0.24293415486035
H           -5.92753021752632        1.51855007251319        1.15222011592118
C           -5.70553773564306        1.80482881224587       -0.99809104450888
C           -7.14887960088791        0.08063162176292        0.17151721597556
H           -4.72976779874156        2.28597307458134       -0.91446440444947
H           -5.67452949861870        1.15390859009887       -1.87398524344635
C           -6.75788528153951        2.89584474208156       -1.22907992611986
O           -8.33673211188205        0.71321974258763        0.30584303030121
H           -7.74341642202863        2.43878445898702       -1.37123436782229
C           -6.81667993890233        3.89941520709927       -0.07671510644134
C           -6.41595477243137        3.63506959797681       -2.52378620134239
H           -5.84678902401521        4.37626035066277        0.04968077067746
H           -7.55029638492148        4.67419984495424       -0.29012726433691
H           -7.08637701019822        3.43709555029581        0.87191476353791
H           -6.39203128723391        2.94542608334545       -3.36390606865691
H           -7.15729012507397        4.40340808455719       -2.73167358188917
H           -5.44090628003785        4.11045062224379       -2.44377257775380
N           -7.05000003581653       -1.16633711837107        0.06088377575273
H           -5.98247346956421       -2.55369228864914        0.33809814055900
C           -8.17278120972964       -2.06650402610485        0.03450793118433
H           -8.92450156840714       -1.81127117830105        0.79327932293685
C           -8.84844497964923       -2.09828157065897       -1.33974409514248
C           -7.61030419740878       -3.46455821029627        0.34891314615760
H           -8.10486758217484       -2.28287916672714       -2.11234583363612
H           -9.58618977299718       -2.89546411233922       -1.35738381953199
H           -9.33660137731908       -1.14702577910010       -1.53651112227000
O           -6.28840180669244       -3.48757321665134        0.46427986396585
O           -8.30252656747178       -4.43770851900990        0.46587127120442
