42
 energy: -62.486133516341 gnorm: 0.000478919417 xtb: 6.7.1 (edcfbbe)
N           -1.90611928056914       -1.48550222048864       -0.58584959534338
H           -1.35540304788701       -2.32700728647137       -0.46927995049715
H           -1.28534616588942       -0.69099146062522       -0.45696084973166
H           -3.21555400368166       -0.81175372021509       -1.79473951544809
C           -2.99360301214650       -1.43182293362239        0.39210926240717
H           -3.46498493808548       -2.42297295505335        0.40917566263105
C           -2.56370964407907       -1.05893213695595        1.80787515253137
C           -4.04652147565354       -0.46971191270560       -0.15181828230668
H           -2.05667497363056       -0.09567989373152        1.80525328685424
H           -3.44350412277617       -0.98167503564899        2.43721375975118
H           -1.89202448523995       -1.81273663228560        2.21362896436707
O           -3.99987997942345       -0.31109471343580       -1.48543657023436
N           -4.86592931486835        0.03445675392129        0.65395593472644
H           -8.32801030968104        1.57632841424363        0.30527635558406
C           -5.97137877724082        0.89618570006977        0.31816736479727
H           -6.12931748092937        1.50689892262906        1.21897902856959
C           -5.72997893021170        1.81889354096148       -0.89620040958372
C           -7.19820125912692        0.02711140481467        0.14030609658374
H           -4.72051107185719        2.22189398033293       -0.78240466602963
H           -5.73687112383591        1.20476752472513       -1.79747707149223
C           -6.69624430884685        2.99427717380149       -1.09153275174529
O           -8.40848967010782        0.62924977746098        0.13950199381608
H           -7.70278907737209        2.61612721421660       -1.30482329031259
C           -6.74813397185586        3.92493158747562        0.12021880659299
C           -6.24751233808410        3.78789592861492       -2.32012858678935
H           -5.74879810704456        4.28207855533306        0.35962176740101
H           -7.37411525489205        4.78766322677828       -0.09821753044560
H           -7.15260914647115        3.43779731097563        1.00591460137206
H           -6.21195828350803        3.14786493893221       -3.19831781640540
H           -6.93657736859823        4.60556543288517       -2.51915539928585
H           -5.25612030869089        4.20596303020560       -2.16035320836493
N           -7.05512077189247       -1.21878211200987        0.06289411428547
H           -5.98895425629920       -2.58565801485890        0.38443701950095
C           -8.14884797095923       -2.14654220742569       -0.07480834254376
H           -8.96241114940043       -1.92755515455755        0.62927498053587
C           -8.71527803974996       -2.15984108045219       -1.49792559712694
C           -7.57890633246411       -3.53919053773020        0.24788109285481
H           -7.90976419492806       -2.31053150701228       -2.21389455309844
H           -9.43129531383649       -2.97153793875553       -1.59035760145876
H           -9.20782245292919       -1.21447786133869       -1.71103827057188
O           -6.26801220379051       -3.53318467094038        0.45927473491452
O           -8.25290735202425       -4.53079417186816        0.28869484971954
