42
 energy: -62.486133528746 gnorm: 0.000477740951 xtb: 6.7.1 (edcfbbe)
N           -1.79223177157867       -0.76083478729007        1.33030358241980
H           -0.87927559223908       -1.17992028550644        1.20133257427803
H           -2.22278623076708       -1.21345910959420        2.13264240960945
H           -2.67116790467806        0.94649713662582        1.45155540787883
C           -2.62989465174587       -0.96364209725766        0.14775750135447
H           -2.02804706743749       -0.69203512371144       -0.72920028781196
C           -3.16117326014272       -2.38515498721820       -0.02229576104554
C           -3.76996866954976        0.03958466510955        0.23199210187896
H           -3.71369081999510       -2.68835007509372        0.86464327682397
H           -3.83683677505037       -2.41485994990032       -0.86989575576317
H           -2.34133174590639       -3.08174961815098       -0.18557131004746
O           -3.53643838447546        1.10331740776442        1.02197332566560
N           -4.82841577475007       -0.16736270233486       -0.41318922090603
H           -7.88234233510925        1.06895340403523       -1.87435575281519
C           -5.93226657608436        0.76798172920673       -0.33683102981436
H           -5.97334548400219        1.22737523217384        0.66244029727625
C           -5.77039578713546        1.87729501304027       -1.38617788844578
C           -7.18171880088072       -0.07978054309800       -0.50496823844743
H           -4.71915820861900        2.17260790932080       -1.38819908587482
H           -5.97729501559586        1.46789093627964       -2.38025206051172
C           -6.62741560942975        3.12311809376431       -1.10511845399184
O           -8.13165038478081        0.27017888857925       -1.39236277071303
H           -7.60049766337172        2.82143435032853       -0.69758497512778
C           -5.94489284499570        4.01418781235225       -0.06902433134229
C           -6.86212783944513        3.90808986632571       -2.39550463452193
H           -5.01693348992438        4.41534603714342       -0.47080964931395
H           -6.58998643672466        4.84630929986275        0.20315248522751
H           -5.70979533700701        3.45334518490006        0.83191159865882
H           -7.40976865797612        3.31738734587437       -3.12828296547759
H           -7.43495153540024        4.80962225806449       -2.19191263089514
H           -5.91111150742528        4.20027266074938       -2.83554970397888
N           -7.26510034293053       -1.09384063275833        0.23412775988683
H           -6.41525354714105       -2.14444237714358        1.35468898277315
C           -8.33983534647554       -2.05343048299033        0.20748885777420
H           -9.30297494500393       -1.58415124457496        0.44368189419380
C           -8.45938172835314       -2.78902403264685       -1.13182930618418
C           -8.01148814713411       -3.08928565200662        1.29873124465520
H           -7.49345609750406       -3.20690448735903       -1.40854550365439
H           -9.18215625342361       -3.59421109372150       -1.03360663964482
H           -8.78440539550946       -2.10247225130082       -1.90864006391860
O           -6.79062918947160       -2.94809200485469        1.79944749957201
O           -8.77459812076365       -3.94981753171328        1.64077242912815
