42
 energy: -62.486132312110 gnorm: 0.000618694084 xtb: 6.7.1 (edcfbbe)
N           -1.01420425667312       -1.24835040365664        0.16927229971319
H           -0.07999075993949       -1.30248284152898       -0.21798685250643
H           -1.30703315690096       -2.19661936569246        0.38926799570071
H           -2.00439738745712       -0.26634852853337        1.48179470271336
C           -1.94438300332502       -0.65485628825180       -0.79140042951697
H           -1.45513081557695        0.23041859698981       -1.21629996657335
C           -2.37706879160247       -1.58292627222654       -1.92349228149124
C           -3.14415824095206       -0.14935795375009       -0.00733003804520
H           -2.82113558238569       -2.48954427001419       -1.51645141674316
H           -3.12284921563875       -1.08136313666625       -2.53091478954860
H           -1.52427045100686       -1.85298180851488       -2.54270565454929
O           -2.93116811609194        0.00481335588669        1.32115462572610
N           -4.22745909697689        0.08567465694366       -0.59665050160745
H           -5.21059750430734       -1.01715197592761        1.81421353209970
C           -5.35590979044281        0.65513748278226        0.11579501683244
H           -5.05555012954139        1.05580162074824        1.09586095370020
C           -5.94560967632910        1.76252717210567       -0.76081322155726
C           -6.30878090402264       -0.49772218342520        0.32805953341227
H           -5.16940500755395        2.51504326621958       -0.91447396370615
H           -6.17626837734099        1.31770757398349       -1.72833697156325
C           -7.19818627026921        2.42947826535026       -0.18506975207640
O           -6.02157765770257       -1.30639914225596        1.37406466959113
H           -7.92581437507941        1.64952589341154        0.05704018443474
C           -6.88744756761935        3.22198844182421        1.08322585920759
C           -7.80884639455843        3.35142495525206       -1.23898367051032
H           -6.11940955645727        3.96766162040505        0.88755753869137
H           -7.78005587687480        3.73544122885034        1.43338441642615
H           -6.54201458259978        2.57170803516953        1.88292761257284
H           -8.07268399325743        2.79204005472174       -2.13287138710523
H           -8.70826328880227        3.82659264378301       -0.85476018976372
H           -7.10206890718371        4.13062000953544       -1.51639846534883
N           -7.24897992048767       -0.71492263075312       -0.47605749363127
H           -7.99698482747891       -0.40217434026727       -2.08510872252370
C           -8.13590638333501       -1.84626499265784       -0.34810160518547
H           -7.59350713566979       -2.76976925269613       -0.10884190333624
C           -9.20410019223969       -1.60817961078751        0.72520211308584
C           -8.84062186537352       -2.01831369296342       -1.70346014539816
H           -9.73038233989733       -0.67667372274528        0.52584262514276
H           -9.91626959853907       -2.42826877165222        0.70993443830406
H           -8.73862312943258       -1.55061101386853        1.70600140497636
O           -8.62282214910324       -1.01382945703083       -2.54202162415460
O           -9.53625497774939       -2.96051903415964       -1.96313335856640
