42
 energy: -62.486133496022 gnorm: 0.000483222888 xtb: 6.7.1 (edcfbbe)
N           -0.95193098067982       -0.29904096294908       -1.32471461833061
H           -0.18041084271573       -0.89837241584831       -1.59080126746162
H           -0.58869240561578        0.40201905339498       -0.68462621151085
H           -2.36563423827928        0.67882495390354       -2.12186036612350
C           -2.01347376605972       -1.06349452586723       -0.67245123879034
H           -2.18107439679667       -1.96484009817441       -1.27698888962743
C           -1.71242959624592       -1.47171779365739        0.76732523521206
C           -3.28981681925099       -0.22363873172136       -0.76146676537629
H           -1.51267488424062       -0.58873996875073        1.37096299747909
H           -2.57158249925909       -1.98316753130536        1.18759813751585
H           -0.84645461345168       -2.12954754796378        0.80329528082152
O           -3.26536827417100        0.70193884072786       -1.73204261752615
N           -4.22276835433398       -0.48107393802290        0.04151195718467
H           -5.13942570305174       -1.77451351952665       -1.26308875225251
C           -5.51879845955788        0.15094493901033        0.12564656403507
H           -5.73514412152716        0.19897801568659        1.19868690361696
C           -5.60462710265674        1.57025076889621       -0.46961876201398
C           -6.55341709727095       -0.76894010442112       -0.49985082413277
H           -4.76917712156994        2.14036953814783       -0.05548154486915
H           -5.45964257511869        1.50789186554647       -1.54934699197818
C           -6.90602670661979        2.32887144053883       -0.19720162555274
O           -6.10845293722983       -1.75561092245196       -1.29788217496695
H           -7.73038733695774        1.78141729730980       -0.66080764517893
C           -7.19296314506937        2.48086440814173        1.29418413602152
C           -6.82057316697182        3.70753126403499       -0.85220676355016
H           -6.35920556624280        2.97008061691031        1.79444465191326
H           -8.08305695479017        3.08785169264162        1.44060132663925
H           -7.36305173095173        1.51589689254535        1.76384750951499
H           -6.62492356827808        3.61734473124405       -1.91813668212513
H           -7.75540833325564        4.24659527318155       -0.72085723987699
H           -6.02024427625350        4.29401093497631       -0.40503030015024
N           -7.77493138683630       -0.56407901249823       -0.26771344671102
H           -9.12249976858442        0.44562210736672        0.46373141084619
C           -8.81049412558460       -1.38083304848617       -0.86149447970350
H           -8.64992966327690       -1.52197667509934       -1.93767259119730
C           -8.91106490862701       -2.75752701471529       -0.19383638844636
C          -10.14502043785577       -0.65114900337416       -0.65043784171098
H           -9.03084570293588       -2.64077500693154        0.88148467535928
H           -9.77189937532580       -3.28650737411808       -0.59298581456910
H           -8.00968901937296       -3.33200781501383       -0.39059946500504
O          -10.06814398439178        0.36436003495487        0.20107792191064
O          -11.16483532109778       -0.98613742357574       -1.18626228041258
