      -----------------------------------------------------------      
     |                   =====================                   |     
     |                           x T B                           |     
     |                   =====================                   |     
     |                         S. Grimme                         |     
     |          Mulliken Center for Theoretical Chemistry        |     
     |                    University of Bonn                     |     
      -----------------------------------------------------------      

   * xtb version 6.7.1 (edcfbbe) compiled by 'albert@albert-system' on 2024-07-22

   xtb is free software: you can redistribute it and/or modify it under
   the terms of the GNU Lesser General Public License as published by
   the Free Software Foundation, either version 3 of the License, or
   (at your option) any later version.
   
   xtb is distributed in the hope that it will be useful,
   but WITHOUT ANY WARRANTY; without even the implied warranty of
   MERCHANTABILITY or FITNESS FOR A PARTICULAR PURPOSE.  See the
   GNU Lesser General Public License for more details.
   
   Cite this work as:
   * C. Bannwarth, E. Caldeweyher, S. Ehlert, A. Hansen, P. Pracht,
     J. Seibert, S. Spicher, S. Grimme, WIREs Comput. Mol. Sci., 2020, 11,
     e01493. DOI: 10.1002/wcms.1493
   
   for GFN2-xTB:
   * C. Bannwarth, S. Ehlert and S. Grimme., J. Chem. Theory Comput., 2019,
     15, 1652-1671. DOI: 10.1021/acs.jctc.8b01176
   for GFN1-xTB:
   * S. Grimme, C. Bannwarth, P. Shushkov, J. Chem. Theory Comput., 2017,
     13, 1989-2009. DOI: 10.1021/acs.jctc.7b00118
   for GFN0-xTB:
   * P. Pracht, E. Caldeweyher, S. Ehlert, S. Grimme, ChemRxiv, 2019, preprint.
     DOI: 10.26434/chemrxiv.8326202.v1
   for GFN-FF:
   * S. Spicher and S. Grimme, Angew. Chem. Int. Ed., 2020, 59, 15665-15673.
     DOI: 10.1002/anie.202004239
   
   for ALPB and GBSA implicit solvation:
   * S. Ehlert, M. Stahn, S. Spicher, S. Grimme, J. Chem. Theory Comput.,
     2021, 17, 4250-4261. DOI: 10.1021/acs.jctc.1c00471
   
   for ddCOSMO and CPCM-X implicit solvation:
   * M. Stahn, S. Ehlert, S. Grimme, J. Phys. Chem. A,
     2023, XX, XXXX-XXXX. DOI: 10.1021/acs.jpca.3c04382
   
   for DFT-D4:
   * E. Caldeweyher, C. Bannwarth and S. Grimme, J. Chem. Phys., 2017,
     147, 034112. DOI: 10.1063/1.4993215
   * E. Caldeweyher, S. Ehlert, A. Hansen, H. Neugebauer, S. Spicher,
     C. Bannwarth and S. Grimme, J. Chem. Phys., 2019, 150, 154122.
     DOI: 10.1063/1.5090222
   * E. Caldeweyher, J.-M. Mewes, S. Ehlert and S. Grimme, Phys. Chem. Chem. Phys.
     2020, 22, 8499-8512. DOI: 10.1039/D0CP00502A
   
   for sTDA-xTB:
   * S. Grimme and C. Bannwarth, J. Chem. Phys., 2016, 145, 054103.
     DOI: 10.1063/1.4959605
   
   in the mass-spec context:
   * V. Asgeirsson, C. Bauer and S. Grimme, Chem. Sci., 2017, 8, 4879.
     DOI: 10.1039/c7sc00601b
   * J. Koopman and S. Grimme, ACS Omega 2019, 4, 12, 15120-15133.
     DOI: 10.1021/acsomega.9b02011
   
   for metadynamics refer to:
   * S. Grimme, J. Chem. Theory Comput., 2019, 155, 2847-2862
     DOI: 10.1021/acs.jctc.9b00143
   
   for SPH calculations refer to:
   * S. Spicher and S. Grimme, J. Chem. Theory Comput., 2021, 17, 1701-1714
     DOI: 10.1021/acs.jctc.0c01306
   
   for ONIOM refer to:
   * C. Plett, A. Katbashev, S. Ehlert, S. Grimme, M. Bursch,
     Phys. Chem. Chem. Phys., 2023, 25, 17860-17868. DOI: 10.1039/D3CP02178E
   
   for DIPRO refer to:
   * J. Kohn, N. Gildemeister, S. Grimme, D. Fazzi, A. Hansen,
     J. Chem. Phys., 2023, just accepted.
   
   for PTB refer to:
   * S. Grimme, M. Mueller, A. Hansen, J. Chem. Phys., 2023, 158, 124111.
     DOI: 10.1063/5.0137838
   
   with help from (in alphabetical order)
   P. Atkinson, C. Bannwarth, F. Bohle, G. Brandenburg, E. Caldeweyher
   M. Checinski, S. Dohm, S. Ehlert, S. Ehrlich, I. Gerasimov, C. Hölzer
   A. Katbashev, J. Kohn, J. Koopman, C. Lavigne, S. Lehtola, F. März, M. Müller,
   F. Musil, H. Neugebauer, J. Pisarek, C. Plett, P. Pracht, F. Pultar,
   J. Seibert, P. Shushkov, S. Spicher, M. Stahn, M. Steiner, T. Strunk,
   J. Stückrath, T. Rose, and J. Unsleber
   
 * started run on 2025/01/22 at 13:03:36.023     
   ID    Z sym.   atoms
    1    1 H      1, 3
    2    8 O      2

           -------------------------------------------------
          |                Calculation Setup                |
           -------------------------------------------------

          program call               : /pchem-data/meuwly/boittier/home/xtb-dist/bin/xtb /pchem-data/meuwly/boittier/home/cookiecutter/dftmp2bench/dftmp2bench/data/xyzs/water.xyz
          coordinate file            : /pchem-data/meuwly/boittier/home/cookiecutter/dftmp2bench/dftmp2bench/data/xyzs/water.xyz
          omp threads                :                    32


           -------------------------------------------------
          |                 G F N 2 - x T B                 |
           -------------------------------------------------

        Reference                      10.1021/acs.jctc.8b01176
      * Hamiltonian:
        H0-scaling (s, p, d)           1.850000    2.230000    2.230000
        zeta-weighting                 0.500000
      * Dispersion:
        s8                             2.700000
        a1                             0.520000
        a2                             5.000000
        s9                             5.000000
      * Repulsion:
        kExp                           1.500000    1.000000
        rExp                           1.000000
      * Coulomb:
        alpha                          2.000000
        third order                    shell-resolved
        anisotropic                    true
        a3                             3.000000
        a5                             4.000000
        cn-shift                       1.200000
        cn-exp                         4.000000
        max-rad                        5.000000


          ...................................................
          :                      SETUP                      :
          :.................................................:
          :  # basis functions                   6          :
          :  # atomic orbitals                   6          :
          :  # shells                            4          :
          :  # electrons                         8          :
          :  max. iterations                   250          :
          :  Hamiltonian                  GFN2-xTB          :
          :  restarted?                      false          :
          :  GBSA solvation                  false          :
          :  PC potential                    false          :
          :  electronic temp.          300.0000000     K    :
          :  accuracy                    1.0000000          :
          :  -> integral cutoff          0.2500000E+02      :
          :  -> integral neglect         0.1000000E-07      :
          :  -> SCF convergence          0.1000000E-05 Eh   :
          :  -> wf. convergence          0.1000000E-03 e    :
          :  Broyden damping             0.4000000          :
          :  net charge                          0          :
          :  unpaired electrons                  0          :
          ...................................................

 iter      E             dE          RMSdq      gap      omega  full diag
   1     -5.1026791 -0.510268E+01  0.417E+00   14.64       0.0  T
   2     -5.1039404 -0.126126E-02  0.240E+00   14.36       1.0  T
   3     -5.1041732 -0.232856E-03  0.378E-01   14.14       1.0  T
   4     -5.1042321 -0.588478E-04  0.850E-02   14.29       1.0  T
   5     -5.1042359 -0.381543E-05  0.497E-02   14.24       1.2  T
   6     -5.1042373 -0.137727E-05  0.109E-03   14.26      52.7  T
   7     -5.1042373 -0.265207E-09  0.861E-04   14.26      67.1  T
   8     -5.1042373 -0.438349E-09  0.631E-05   14.26     915.7  T

   *** convergence criteria satisfied after 8 iterations ***

         #    Occupation            Energy/Eh            Energy/eV
      -------------------------------------------------------------
         1        2.0000           -0.6802479             -18.5105
         2        2.0000           -0.5674604             -15.4414
         3        2.0000           -0.5120196             -13.9328
         4        2.0000           -0.4466187             -12.1531 (HOMO)
         5                          0.0774669               2.1080 (LUMO)
         6                          0.2497428               6.7958
      -------------------------------------------------------------
                  HL-Gap            0.5240856 Eh           14.2611 eV
             Fermi-level           -0.1845759 Eh           -5.0226 eV

 SCC (total)                   0 d,  0 h,  0 min,  0.052 sec
 SCC setup                      ...        0 min,  0.000 sec (  0.411%)
 Dispersion                     ...        0 min,  0.001 sec (  1.017%)
 classical contributions        ...        0 min,  0.000 sec (  0.549%)
 integral evaluation            ...        0 min,  0.001 sec (  1.069%)
 iterations                     ...        0 min,  0.048 sec ( 92.722%)
 molecular gradient             ...        0 min,  0.002 sec (  4.082%)
 printout                       ...        0 min,  0.000 sec (  0.100%)

         :::::::::::::::::::::::::::::::::::::::::::::::::::::
         ::                     SUMMARY                     ::
         :::::::::::::::::::::::::::::::::::::::::::::::::::::
         :: total energy              -5.070156761615 Eh    ::
         :: gradient norm              0.028071738448 Eh/a0 ::
         :: HOMO-LUMO gap             14.261094446364 eV    ::
         ::.................................................::
         :: SCC energy                -5.104237286257 Eh    ::
         :: -> isotropic ES            0.031432669194 Eh    ::
         :: -> anisotropic ES          0.000478687015 Eh    ::
         :: -> anisotropic XC         -0.000845063953 Eh    ::
         :: -> dispersion             -0.000141192795 Eh    ::
         :: repulsion energy           0.034080524642 Eh    ::
         :: add. restraining           0.000000000000 Eh    ::
         :: total charge              -0.000000000000 e     ::
         :::::::::::::::::::::::::::::::::::::::::::::::::::::

           -------------------------------------------------
          |                Property Printout                |
           -------------------------------------------------

    * Orbital Energies and Occupations

         #    Occupation            Energy/Eh            Energy/eV
      -------------------------------------------------------------
         1        2.0000           -0.6802479             -18.5105
         2        2.0000           -0.5674604             -15.4414
         3        2.0000           -0.5120196             -13.9328
         4        2.0000           -0.4466187             -12.1531 (HOMO)
         5                          0.0774669               2.1080 (LUMO)
         6                          0.2497428               6.7958
      -------------------------------------------------------------
                  HL-Gap            0.5240856 Eh           14.2611 eV
             Fermi-level           -0.1845759 Eh           -5.0226 eV

     #   Z          covCN         q      C6AA      α(0)
     1   1 H        0.807     0.283     0.775     1.383
     2   8 O        1.610    -0.564    24.336     6.658
     3   1 H        0.803     0.281     0.781     1.388

 Mol. C6AA /au·bohr⁶  :         44.531416
 Mol. C8AA /au·bohr⁸  :        795.557438
 Mol. α(0) /au        :          9.429228


Wiberg/Mayer (AO) data.
largest (>0.10) Wiberg bond orders for each atom

 ---------------------------------------------------------------------------
     #   Z sym  total        # sym  WBO       # sym  WBO       # sym  WBO
 ---------------------------------------------------------------------------
     1   1 H    0.920 --     2 O    0.920
     2   8 O    1.841 --     3 H    0.921     1 H    0.920
     3   1 H    0.921 --     2 O    0.921
 ---------------------------------------------------------------------------

Topologies differ in total number of bonds
Writing topology from bond orders to xtbtopo.mol

molecular dipole:
                 x           y           z       tot (Debye)
 q only:       -0.287       0.041      -0.541
   full:       -0.418       0.051      -0.772       2.236
molecular quadrupole (traceless):
                xx          xy          yy          xz          yz          zz
 q only:        0.183       0.207      -1.535       2.780      -1.355       1.352
  q+dip:        0.308       0.194      -2.243       3.981      -1.855       1.935
   full:        0.293       0.397      -2.243       4.035      -1.964       1.950


           -------------------------------------------------
          | TOTAL ENERGY               -5.070156761615 Eh   |
          | GRADIENT NORM               0.028071738448 Eh/α |
          | HOMO-LUMO GAP              14.261094446364 eV   |
           -------------------------------------------------

------------------------------------------------------------------------
 * finished run on 2025/01/22 at 13:03:36.114     
------------------------------------------------------------------------
 total:
 * wall-time:     0 d,  0 h,  0 min,  0.090 sec
 *  cpu-time:     0 d,  0 h,  0 min,  1.523 sec
 * ratio c/w:    16.949 speedup
 SCF:
 * wall-time:     0 d,  0 h,  0 min,  0.052 sec
 *  cpu-time:     0 d,  0 h,  0 min,  0.934 sec
 * ratio c/w:    17.898 speedup

