42
 energy: -62.474095660168 gnorm: 0.014186405577 xtb: 6.7.1 (edcfbbe)
N           -1.68642271383773       -1.16958910903791       -2.86330257956659
H           -0.68468501876560       -1.24399333201205       -2.99085864074661
H           -2.08040204802747       -0.82196946026989       -3.73302151444935
H           -3.07817477782105       -2.22205592508154       -2.19336232667479
C           -2.01239033985170       -0.25433515019610       -1.76979013452543
H           -1.34659067928289       -0.49617114212610       -0.93231045778993
C           -1.87136234377381        1.22450102042862       -2.11416293547277
C           -3.42856629049287       -0.58958228889081       -1.30417312260614
H           -2.50411717066510        1.47253659453901       -2.96334112799817
H           -2.18648582490049        1.82210045183818       -1.26632739220708
H           -0.83841670987994        1.46125041130763       -2.36036860835554
O           -3.80686505052268       -1.85476316485029       -1.64622350797549
N           -4.07467874969075        0.27173616832044       -0.68002411115635
H           -5.38075729140344       -2.01125581372246       -1.03849145899312
C           -5.37575108699087        0.35614204817709       -0.08587330352097
H           -5.22010602774682        0.90063277716874        0.85064165708331
C           -6.18931712684128        1.26223457252517       -1.05071303183586
C           -6.22838989491328       -0.85708585337456        0.24654630715751
H           -5.51863876515144        2.06420957674216       -1.36631267249517
H           -6.43777588957263        0.66829398348520       -1.93493411458475
C           -7.47060983409445        1.87448002126715       -0.48096881574835
O           -6.15160470094028       -1.99772938027548       -0.44139209955399
H           -8.10719292836855        1.07173365026719       -0.09976528519389
C           -7.17902261440230        2.85028628918301        0.65531512055573
C           -8.22331732548528        2.59224228285349       -1.60111768259737
H           -6.54792674723029        3.66411373323710        0.30379543874154
H           -8.10772692843515        3.27203524036659        1.03083735688321
H           -6.67683750591899        2.35517636384430        1.48147316118809
H           -8.47191897287803        1.90370098255249       -2.40559151250054
H           -9.14801062480946        3.01738118058084       -1.21961160799943
H           -7.61864537837462        3.39835023270504       -2.01215684268157
N           -7.09782057300563       -0.67039133926083        1.14842227566098
H           -8.04828543382270        0.45094747616377        2.21064897972345
C           -8.04958453374008       -1.70056045307869        1.50094689234120
H           -8.46793484413609       -2.19213278844827        0.61289644405891
C           -7.42591933526176       -2.76901062819320        2.40605296356123
C           -9.18990119480971       -1.02070537561238        2.27147623266654
H           -6.96082222844215       -2.29759226614457        3.26966210784019
H           -8.20205773273234       -3.44920528071826        2.74531477417676
H           -6.67146585584871       -3.32572975334738        1.85595846187584
O           -8.93046949197431        0.23990802801088        2.59872893564821
O          -10.20922265382830       -1.58216050242177        2.56441269833627
42
 energy: -62.474373874960 gnorm: 0.005810454172 xtb: 6.7.1 (edcfbbe)
N           -1.68732816774027       -1.16816242606264       -2.86534282956432
H           -0.68562289662748       -1.24384364912423       -2.99257301335264
H           -2.08087573832075       -0.81868918268714       -3.73479449134656
H           -3.08264901388935       -2.21817403112321       -2.20310203100477
C           -2.01258154435101       -0.25464013663575       -1.76967355931247
H           -1.34673157677256       -0.49927148698604       -0.93252573255225
C           -1.87120292509005        1.22520941868161       -2.11198853324073
C           -3.42929611953572       -0.58935255003607       -1.30498831911364
H           -2.50424841290788        1.47469101695206       -2.96116342510896
H           -2.18571521532710        1.82225731873807       -1.26326856451568
H           -0.83821374690515        1.46186768150098       -2.35831389827916
O           -3.81082189784991       -1.85162154759364       -1.65476691330386
N           -4.06990113923258        0.26606549930667       -0.66703257510693
H           -5.37876321489526       -2.01382023748666       -1.03332589422677
C           -5.37798180550834        0.35528823639084       -0.08915272033668
H           -5.22572887551818        0.89941254008379        0.84834669771948
C           -6.18844715837405        1.26274438932076       -1.05412762353835
C           -6.22464844162452       -0.85912896244507        0.25290681550873
H           -5.51706208769945        2.06482613789528       -1.36786848372530
H           -6.43645361404182        0.66948056476915       -1.93883414727741
C           -7.46955168491910        1.87445604583064       -0.48297527273626
O           -6.14746952034615       -2.00077694252223       -0.43338549607677
H           -8.10587895212356        1.07137683917436       -0.10195982455474
C           -7.17824079262411        2.84966181532313        0.65405547516884
C           -8.22305167836117        2.59279353622142       -1.60210782644773
H           -6.54702478585775        3.66370394781150        0.30322363717114
H           -8.10700530183188        3.27136055630060        1.02956894245993
H           -6.67640667323348        2.35429523695850        1.48029288035970
H           -8.47187907282671        1.90463607035152       -2.40683000828705
H           -9.14764684685564        3.01741769067092       -1.21973225609917
H           -7.61874235715190        3.39931432616849       -2.01284578275824
N           -7.09744878307660       -0.67020640955225        1.15093728805677
H           -8.04911259266244        0.45126129993042        2.21110731484506
C           -8.04980149054836       -1.70026963674928        1.50203058377287
H           -8.46727845378727       -2.19174502575176        0.61345522772255
C           -7.42662307448067       -2.76911183578084        2.40703841527839
C           -9.19062680891619       -1.02044865623160        2.27175752867770
H           -6.96201608269855       -2.29799942488344        3.27107878328530
H           -8.20286406390158       -3.44959216247588        2.74547012519363
H           -6.67180553510288       -3.32550926241814        1.85708133729026
O           -8.93143972789952        0.24022589503753        2.59893206397832
O          -10.21000336724837       -1.58200841848464        2.56433102550871
42
 energy: -62.474514116868 gnorm: 0.002115257404 xtb: 6.7.1 (edcfbbe)
N           -1.68947734137447       -1.16504362064409       -2.86852198850553
H           -0.68779109443353       -1.24356218000628       -2.99400157366683
H           -2.08049196587031       -0.81117899841718       -3.73755200388264
H           -3.09353077354224       -2.20926403142858       -2.22225414396221
C           -2.01394086569902       -0.25481813472773       -1.76948403795439
H           -1.34895105773084       -0.50362474627592       -0.93257209311551
C           -1.87045383046102        1.22613163017916       -2.10767709148491
C           -3.43336732227576       -0.58617446790883       -1.31009544057995
H           -2.50318074719721        1.47850831247842       -2.95672162314874
H           -2.18443229074215        1.82141694592873       -1.25734818160702
H           -0.83719330416466        1.46232869619377       -2.35335282195689
O           -3.82243417066856       -1.84218998082625       -1.67508290171562
N           -4.06427557611051        0.26102692893066       -0.65084336955344
H           -5.37704403242579       -2.01613206307735       -1.02587350782823
C           -5.37833380109806        0.35546363957623       -0.08616424137868
H           -5.23247825700003        0.90416400931913        0.85048329842170
C           -6.18414207214561        1.25926661613378       -1.05687816473777
C           -6.22504176923190       -0.85872519514276        0.25768121889557
H           -5.51146317208307        2.06090934265840       -1.36879476912114
H           -6.43158231034450        0.66676267329813       -1.94228085818334
C           -7.46557989020665        1.87200106553571       -0.48642763900198
O           -6.14253253929720       -2.00444721377597       -0.42177280752384
H           -8.10176965216308        1.06880002642042       -0.10534824238725
C           -7.17560673403340        2.84748404399352        0.65093385681075
C           -8.22019535542751        2.59147556452540       -1.60426221739816
H           -6.54418678658178        3.66180667551565        0.30106637609286
H           -8.10497360834423        3.26907690396677        1.02522431910666
H           -6.67497035910963        2.35251466863766        1.47811265520083
H           -8.46986415932145        1.90445437375659       -2.40965043350932
H           -9.14457575835258        3.01550182979710       -1.22051715320766
H           -7.61678242245001        3.39892489887923       -2.01450295899672
N           -7.10079486282546       -0.66836909885553        1.15244360185538
H           -8.05201292884899        0.45183647636773        2.21201916351807
C           -8.05061484617554       -1.70018485129634        1.50475007249710
H           -8.46721526985436       -2.19174318597275        0.61579052493758
C           -7.42745530598168       -2.76931464753994        2.40946917151493
C           -9.19227021140280       -1.02081613858934        2.27354810366228
H           -6.96359351689746       -2.29846965910087        3.27403176570241
H           -8.20346472168387       -3.45054925761824        2.74695630639831
H           -6.67213027018397       -3.32486925239231        1.85936296343463
O           -8.93454257736168        0.24052105766092        2.59932753967041
O          -10.21145370755320       -1.58292557802823        2.56571424646316
42
 energy: -62.474573955939 gnorm: 0.003030330860 xtb: 6.7.1 (edcfbbe)
N           -1.69157151955674       -1.16197276588295       -2.87138236796531
H           -0.68982612196867       -1.24335035629869       -2.99432766315242
H           -2.07899546326322       -0.80345982380242       -3.74016639743390
H           -3.10559941516605       -2.19968294438184       -2.24183485150553
C           -2.01619825940002       -0.25473473608648       -1.76988520977824
H           -1.35297077656603       -0.50675147943340       -0.93273920906021
C           -1.86961338483512        1.22702457702051       -2.10371854109254
C           -3.43753701246341       -0.58348196772598       -1.31426535997774
H           -2.50133895327850        1.48283410735008       -2.95253761851820
H           -2.18323663322263        1.82017775132528       -1.25175549333955
H           -0.83585922728097        1.46245128442763       -2.34801555834252
O           -3.83603244374584       -1.83148928032483       -1.69728587197269
N           -4.06135587538366        0.25870788527088       -0.64179484767213
H           -5.37624315031050       -2.01664727017347       -1.02097335050303
C           -5.37684556323691        0.35498469784640       -0.08030992394123
H           -5.23463622172662        0.90800814096476        0.85431707934158
C           -6.17978151625700        1.25560022932751       -1.05625711509440
C           -6.22441435775914       -0.85902363074460        0.26272844576126
H           -5.50661016479292        2.05654134821662       -1.36929936338571
H           -6.42618292001377        0.66134929680141       -1.94073754568788
C           -7.46214788952369        1.86985596105875       -0.48881135246812
O           -6.13797607050128       -2.00720735648675       -0.41210640836218
H           -8.09869749133388        1.06697117936611       -0.10774139856382
C           -7.17328735084031        2.84606610175615        0.64822085090584
C           -8.21605537313600        2.58897715782339       -1.60734512866157
H           -6.54106188824993        3.65991272974107        0.29869454249910
H           -8.10326806559448        3.26808721940007        1.02044828623924
H           -6.67439561940337        2.35182009183134        1.47686592347420
H           -8.46564028782580        1.90231144137708       -2.41305319450422
H           -9.14055397100148        3.01265184840928       -1.22341442523056
H           -7.61288118173692        3.39688955708166       -2.01704745567757
N           -7.10287763921551       -0.66777068666438        1.15470752481326
H           -8.05582091464156        0.45219517386919        2.21233272145336
C           -8.05206351869374       -1.70012706855931        1.50715934576485
H           -8.46807526244016       -2.19180151281499        0.61794659094426
C           -7.42846120945027       -2.76910681852108        2.41168606808050
C           -9.19463685428789       -1.02135385963714        2.27525081307881
H           -6.96531484426183       -2.29859846621066        3.27681619413123
H           -8.20440311291735       -3.45080550462178        2.74831723362449
H           -6.67261401632190       -3.32406301564269        1.86171503276944
O           -8.93791538149192        0.24029846390118        2.60047366229141
O          -10.21319431555446       -1.58431362230187        2.56806025610200
42
 energy: -62.474650430725 gnorm: 0.002994535039 xtb: 6.7.1 (edcfbbe)
N           -1.69443309443992       -1.15715624980034       -2.87571773836115
H           -0.69246514270448       -1.24446319535594       -2.99254521894520
H           -2.07357367887405       -0.78991173484254       -3.74462338571378
H           -3.12936196077360       -2.18103582703940       -2.27961784205775
C           -2.02035358013110       -0.25492337464613       -1.77069230590115
H           -1.36146571922763       -0.51194033452820       -0.93208198170298
C           -1.86792066733098        1.22815907228022       -2.09692595588012
C           -3.44522607142077       -0.57878368792422       -1.32224770502109
H           -2.49678118707591        1.49046784004595       -2.94585841751802
H           -2.18138708241951        1.81770957413419       -1.24241207439929
H           -0.83288876572702        1.46156286386849       -2.33765187480772
O           -3.86139605082063       -1.81140352083218       -1.73792513391716
N           -4.05805864109432        0.25635312608430       -0.63119181145012
H           -5.37548163876285       -2.01515620923069       -1.01479167417263
C           -5.37333939305862        0.35369629099796       -0.06917776253950
H           -5.23451552936633        0.91149548507102        0.86248598571600
C           -6.17352274739333        1.24927441935647       -1.05283325072276
C           -6.22302090828779       -0.85945109921100        0.27131342121459
H           -5.49963166199524        2.04862994705286       -1.36904103403968
H           -6.41748175087478        0.65020017354819       -1.93475309338246
C           -7.45731126248219        1.86652954667460       -0.49150295136425
O           -6.12939002454955       -2.01127299805405       -0.39592866424558
H           -8.09508384824643        1.06464662441810       -0.11047529662031
C           -7.17044966313258        2.84497637519575        0.64403780633353
C           -8.20789977698593        2.58387911307528       -1.61324545929837
H           -6.53575349514850        3.65687138787089        0.29446764689766
H           -8.10109984593510        3.26911476740076        1.01205823549099
H           -6.67519283305443        2.35207937656021        1.47562497725915
H           -8.45570554798128        1.89659063598623       -2.41894230723354
H           -9.13328023105496        3.00752614188485       -1.23134060548407
H           -7.60415698843456        3.39175463758692       -2.02219564814839
N           -7.10578438367753       -0.66699283459470        1.15899397222710
H           -8.06248677285654        0.45283137339791        2.21293070974067
C           -8.05430003523082       -1.70012102060215        1.51137757729148
H           -8.46965231850659       -2.19189819110824        0.62182735487108
C           -7.43036648208611       -2.76897211848132        2.41565868865372
C           -9.19802925651114       -1.02279612626708        2.27924937811274
H           -6.96846103972420       -2.29873938196946        3.28159392214835
H           -8.20601850820170       -3.45161158849575        2.75105497112805
H           -6.67353750978740       -3.32268893936445        1.86586812868684
O           -8.94419850661895        0.24011821137450        2.60171142057928
O          -10.21572763666287       -1.58717447417291        2.57239991524085
42
 energy: -62.474697968358 gnorm: 0.002432220160 xtb: 6.7.1 (edcfbbe)
N           -1.69673890664185       -1.15318668126486       -2.88003539534934
H           -0.69457265910263       -1.24727304458826       -2.99001675919362
H           -2.06649821397804       -0.77695507140920       -3.74929647603457
H           -3.15193193186397       -2.16309990123760       -2.31526404355294
C           -2.02405546137258       -0.25573175191036       -1.77186550191779
H           -1.36974028507062       -0.51748542387839       -0.93144346589389
C           -1.86574685731389        1.22863191604376       -2.09060312363507
C           -3.45198343437710       -0.57505541925157       -1.32982794343062
H           -2.49131203346735        1.49744177281895       -2.93988324013985
H           -2.17934096907260        1.81485415021842       -1.23384225735381
H           -0.82924270677505        1.45967360524366       -2.32728962393367
O           -3.88314190295987       -1.79354104218655       -1.77233581591525
N           -4.05671765491369        0.25491612650913       -0.62600475084395
H           -5.37496720754492       -2.01253194295023       -1.01146754348780
C           -5.37031974875835        0.35197040837882       -0.06005389627625
H           -5.23141141310507        0.91063841484120        0.87036637659458
C           -6.16999388007580        1.24468419692139       -1.04783331263796
C           -6.22130537537629       -0.86037002696163        0.27842534971167
H           -5.49556783639771        2.04255551243943       -1.36699069412605
H           -6.41163015270558        0.64084001072701       -1.92720555856872
C           -7.45474684502002        1.86442467295714       -0.49234809437185
O           -6.12103152913641       -2.01481300863082       -0.38272102657116
H           -8.09433649612497        1.06404153238383       -0.11124237138029
C           -7.16959201043594        2.84558255159565        0.64113893166664
C           -8.20038737228901        2.57906911099002       -1.61898365292027
H           -6.53163357768532        3.65472216877577        0.29110238595847
H           -8.10044250604611        3.27306776654611        1.00468012188133
H           -6.67828093486557        2.35386332173603        1.47576058852960
H           -8.44472579732376        1.88983851917243       -2.42409216053378
H           -9.12731083595519        3.00366852098694       -1.24191475117958
H           -7.59475808661150        3.38580892990378       -2.02737645373556
N           -7.10730203569530       -0.66694613631367        1.16284114997697
H           -8.06775387764973        0.45362071054866        2.21288710521724
C           -8.05560603157939       -1.70043891133379        1.51499864491744
H           -8.47027923606736       -2.19242699718647        0.62522434029388
C           -7.43205958713469       -2.76913938754888        2.41969184327455
C           -9.20082325867804       -1.02359940004159        2.28120920511265
H           -6.97155325604729       -2.29879436109920        3.28631006573535
H           -8.20764700482162       -3.45237796586418        2.75403677509044
H           -6.67418510084635       -3.32213966160683        1.87067593685528
O           -8.94871513027154        0.23985721538403        2.60285335800909
O          -10.21680209749018       -1.58989092297818        2.57667065216033
42
 energy: -62.474725716302 gnorm: 0.001835147094 xtb: 6.7.1 (edcfbbe)
N           -1.69898934890234       -1.15034971262043       -2.88444445139293
H           -0.69684175172682       -1.25168151763226       -2.98829977861236
H           -2.05977449395259       -0.76577291806763       -3.75391184895403
H           -3.16865382590251       -2.14935453187094       -2.34179920407062
C           -2.02661146002211       -0.25703172641062       -1.77330599081272
H           -1.37588195660419       -0.52345264287682       -0.93166844289007
C           -1.86302778472749        1.22840212919573       -2.08534750730856
C           -3.45657397206458       -0.57290837743016       -1.33562447594195
H           -2.48565396927277        1.50292227934990       -2.93492550773884
H           -2.17678936222470        1.81183633197418       -1.22673832649276
H           -0.82519066447862        1.45714474429884       -2.31846082031727
O           -3.89708717348631       -1.78114474018235       -1.79424129468397
N           -4.05693633812269        0.25400903283182       -0.62507210121650
H           -5.37443681983288       -2.01035795031305       -1.01055407120764
C           -5.36876378236159        0.35044916985667       -0.05483198197200
H           -5.22754637004076        0.90721236402015        0.87608501304464
C           -6.16928952930684        1.24266930642366       -1.04304522089769
C           -6.21979185102953       -0.86166523683305        0.28271907436850
H           -5.49462773364568        2.03975245380181       -1.36360202250010
H           -6.40930940638686        0.63604121887377       -1.92099917573179
C           -7.45450168852233        1.86378487894285       -0.49175005548054
O           -6.11438336206235       -2.01764342582497       -0.37448887183993
H           -8.09596522386745        1.06497661410590       -0.11043436257353
C           -7.17075212934986        2.84746853584172        0.63977228609193
C           -8.19516226440593        2.57563666488555       -1.62344024318605
H           -6.52952138125393        3.65384868353441        0.28930730237523
H           -8.10146371925479        3.27859108860965        0.99934261916996
H           -6.68302670607099        2.35652698212308        1.47696628920768
H           -8.43552867574180        1.88384943981553       -2.42761298431361
H           -9.12378883982776        3.00180510873982       -1.25244267087305
H           -7.58701638363347        3.38063655320776       -2.03154487100038
N           -7.10732197402013       -0.66771206072238        1.16549666750201
H           -8.07026459061128        0.45402053247085        2.21246485540182
C           -8.05557228468520       -1.70126183631225        1.51773201242069
H           -8.46976001102592       -2.19351353883686        0.62782354736473
C           -7.43309590408896       -2.76967033257545        2.42343027551534
C           -9.20107160305889       -1.02477574171078        2.28387052891807
H           -6.97380554001265       -2.29893131797778        3.29048343557504
H           -8.20898732709287       -3.45292414568508        2.75705482741647
H           -6.67447400634169       -3.32254621491947        1.87538251887513
O           -8.95193702616134        0.24050744393624        2.60083936364127
O          -10.21701300346794       -1.59141951150913        2.57875058262040
42
 energy: -62.474741460277 gnorm: 0.001722628076 xtb: 6.7.1 (edcfbbe)
N           -1.70294025136379       -1.14704067649463       -2.89143627369727
H           -0.70127208048067       -1.25999952514511       -2.98807698740398
H           -2.05178200083066       -0.75080451890481       -3.76058834631019
H           -3.18466721453776       -2.13554520890982       -2.36873475877788
C           -2.02853478570151       -0.25932115853395       -1.77532631272059
H           -1.38110829957994       -0.53334575632922       -0.93351168379641
C           -1.85797709688099        1.22738059498042       -2.07827564910892
C           -3.46038377054173       -0.57170711391243       -1.34146405543932
H           -2.47711593778220        1.50936549421246       -2.92798584358587
H           -2.17180339035099        1.80715776090992       -1.21720726650236
H           -0.81853100625543        1.45303622814860       -2.30717934063886
O           -3.90844028584004       -1.77005853889960       -1.81293454159514
N           -4.05791756390627        0.25285911364582       -0.62580571481140
H           -5.37387952380729       -2.00914052228166       -1.01086492178082
C           -5.36833040834507        0.34891909561980       -0.05175212658524
H           -5.22339795351516        0.90180186927590        0.88113515323049
C           -6.17024265085498        1.24246819233231       -1.03776623111111
C           -6.21833965813687       -0.86372885069331        0.28558606620253
H           -5.49552041061767        2.03955059923018       -1.35783450134933
H           -6.40874694368354        0.63508916806230       -1.91566132223491
C           -7.45597732594883        1.86413228073340       -0.49028204830440
O           -6.10788526552660       -2.02096468569661       -0.36828470992351
H           -8.09959377839724        1.06723595379715       -0.10849373071671
C           -7.17423074717919        2.85087219623153        0.63897930633555
C           -8.19093241505400        2.57250037722309       -1.62803348966178
H           -6.52898075261370        3.65401393663986        0.28838572231244
H           -8.10475579967242        3.28647219541270        0.99362943090492
H           -6.69098489415784        2.36070377776489        1.47924009240711
H           -8.42635590629011        1.87718401437870       -2.43072507360291
H           -9.12162776833745        3.00095020741557       -1.26513347574147
H           -7.57944778933388        3.37503669224924       -2.03608502196995
N           -7.10660413003034       -0.66937193903460        1.16738709026063
H           -8.07199627743125        0.45477035194751        2.20992791382400
C           -8.05448174625720       -1.70287218909108        1.52049766551665
H           -8.46738257287933       -2.19651656605149        0.63080874414714
C           -7.43355810916922       -2.77025397587148        2.42864808628447
C           -9.20193911039425       -1.02475961573643        2.28224669735529
H           -6.97612061071403       -2.29841865388361        3.29608222153045
H           -8.21015712859314       -3.45304198693476        2.76159936038381
H           -6.67377864535731       -3.32394881577728        1.88301948721656
O           -8.95292117743912        0.24047060940952        2.59935319051444
O          -10.21554805485925       -1.59315633529456        2.58185211589484
42
 energy: -62.474752117656 gnorm: 0.001183208950 xtb: 6.7.1 (edcfbbe)
N           -1.70582537900418       -1.14536753963278       -2.89572051914259
H           -0.70483438459325       -1.26519560475180       -2.99023092638963
H           -2.04960221756294       -0.74311079701438       -3.76394160990870
H           -3.18795078834941       -2.13221798509599       -2.37587418111814
C           -2.02847239515677       -0.26074238530043       -1.77601927472564
H           -1.38129264777067       -0.53972507966492       -0.93558571751528
C           -1.85445674682976        1.22643223048361       -2.07407536445556
C           -3.46102057793939       -0.57185406243269       -1.34294856776080
H           -2.47233692577449        1.51216777167844       -2.92349875551085
H           -2.16800201583196        1.80422682029082       -1.21157492443758
H           -0.81440055547798        1.45067147520027       -2.30147177339563
O           -3.91055753217462       -1.76800951992107       -1.81736826025089
N           -4.05794328438573        0.25230059068919       -0.62552540136517
H           -5.37431058835321       -2.00996287176975       -1.01150416190636
C           -5.36894094211640        0.34888968438679       -0.05236246808545
H           -5.22362648116359        0.90095801725908        0.88130806011601
C           -6.17046441254216        1.24355150657534       -1.03713892689772
C           -6.21832668472710       -0.86444533413150        0.28535349511052
H           -5.49581228470629        2.04144115864419       -1.35529585902546
H           -6.40845552452349        0.63791418862324       -1.91639191710892
C           -7.45682774690831        1.86457409334121       -0.49027057561890
O           -6.10717884954354       -2.02199051035441       -0.36797690789683
H           -8.10051981927648        1.06780213355705       -0.10836175257827
C           -7.17638440850406        2.85208776835455        0.63868651605028
C           -8.19113267608790        2.57194244064758       -1.62913640827643
H           -6.53019477819485        3.65468272149468        0.28863163973660
H           -8.10720085048883        3.28854133612929        0.99147760755200
H           -6.69471964967289        2.36229032589145        1.48006895612972
H           -8.42571244015933        1.87577498003752       -2.43131500498364
H           -9.12214705519539        3.00083650984190       -1.26789696674219
H           -7.57914231557500        3.37399907609513       -2.03737030791322
N           -7.10605256255359       -0.67030639652973        1.16763631558677
H           -8.07174234656278        0.45463837498918        2.20834119590918
C           -8.05339453524457       -1.70393045880629        1.52175059972091
H           -8.46581342357875       -2.19866023637366        0.63235573324419
C           -7.43290025289627       -2.77018733031164        2.43141046469130
C           -9.20033860001103       -1.02593181227060        2.28435957998795
H           -6.97608100973528       -2.29752426730614        3.29871604716257
H           -8.20979954866740       -3.45259233066683        2.76447854230963
H           -6.67281505019330       -3.32437840073591        1.88673398910679